 &FCI NORB=  10,NELEC=14,MS2=0,
  ORBSYM=1,1,1,1,1,1,1,1,1,1,
  ISYM=1,
 &END
 2.307361653271414    1    1    1    1
 -1.67048942766642e-11    2    1    1    1
 1.824394165287095    2    1    2    1
 2.306866249352076    2    2    1    1
 1.670624429810433e-11    2    2    2    1
 2.306372263293196    2    2    2    2
 -0.1915682596422279    3    1    1    1
 -0.1914344644636244    3    1    2    2
 0.03101236967308134    3    1    3    1
 -0.1985613011330647    3    2    2    1
 -2.694052798771565e-12    3    2    2    2
 0.03074892278564708    3    2    3    2
 0.7878592596157283    3    3    1    1
 0.787943771997047    3    3    2    2
 0.002064320313907607    3    3    3    1
 0.7481650700135568    3    3    3    3
 -2.566565631864062e-12    4    1    1    1
 0.18447311352415    4    1    2    1
 -0.02601070091472061    4    1    3    2
 0.02869040128631456    4    1    4    1
 0.1914258859380061    4    2    1    1
 0.1913798394513692    4    2    2    2
 -0.02581195275904256    4    2    3    1
 0.01833490655606892    4    2    3    3
 0.02888942280245585    4    2    4    2
 1.569188142191156e-12    4    3    1    1
 -0.1715887598338652    4    3    2    1
 -1.573188099430502e-12    4    3    2    2
 0.00830840113800607    4    3    3    2
 -0.004815902544948538    4    3    4    1
 0.05615324978268816    4    3    4    3
 0.6673390246158419    4    4    1    1
 0.6672766356780327    4    4    2    2
 -0.01258601888657357    4    4    3    1
 0.5121788409921357    4    4    3    3
 0.004888434612884646    4    4    4    2
 0.5456431132215915    4    4    4    4
 0.009771009189241352    5    1    5    1
 0.009265309451313248    5    2    5    2
 0.01664424350688745    5    3    5    1
 0.1051333371958086    5    3    5    3
 -0.01126650930114863    5    4    5    2
 0.05079666261618072    5    4    5    4
 0.6883770842515246    5    5    1    1
 0.6884208493734713    5    5    2    2
 -0.001493542890461599    5    5    3    1
 0.6177533790096846    5    5    3    3
 0.007742652478019998    5    5    4    2
 0.5101683989373006    5    5    4    4
 0.5884264015728602    5    5    5    5
 0.009771009189241352    6    1    6    1
 0.00926530945131325    6    2    6    2
 0.01664424350688745    6    3    6    1
 0.1051333371958086    6    3    6    3
 -0.01126650930114862    6    4    6    2
 0.05079666261618072    6    4    6    4
 0.02402096410958964    6    5    6    5
 0.6883770842515246    6    6    1    1
 0.6884208493734713    6    6    2    2
 -0.001493542890461589    6    6    3    1
 0.6177533790096845    6    6    3    3
 0.007742652478019965    6    6    4    2
 0.5101683989373006    6    6    4    4
 0.5403844733536809    6    6    5    5
 0.5884264015728602    6    6    6    6
 0.08358500836513033    7    1    1    1
 0.08364443044477038    7    1    2    2
 -0.006548635038560151    7    1    3    1
 0.02556857778901947    7    1    3    3
 0.01521784979817147    7    1    4    2
 -0.004222362731929085    7    1    4    4
 0.00897059651942996    7    1    5    5
 0.00897059651942996    7    1    6    6
 0.01427607552982547    7    1    7    1
 0.06848345252482246    7    2    2    1
 1.014028582781677e-12    7    2    2    2
 -0.007012554899505055    7    2    3    2
 0.0147814574883088    7    2    4    1
 0.0007841525530769087    7    2    4    3
 0.01331539873202377    7    2    7    2
 0.06574113238830867    7    3    1    1
 0.0657974060729543    7    3    2    2
 0.007247038443066661    7    3    3    1
 0.108874907442993    7    3    3    3
 0.004793468011801776    7    3    4    2
 -0.001053367535829023    7    3    4    4
 0.04698882006587894    7    3    5    5
 0.04698882006587893    7    3    6    6
 0.01236157155611711    7    3    7    1
 0.05149722096957696    7    3    7    3
 -2.310405440911472e-12    7    4    1    1
 0.2522641940565044    7    4    2    1
 2.309486095914478e-12    7    4    2    2
 -0.01392577118037735    7    4    3    2
 -0.002348528709719357    7    4    4    1
 -0.09285945255411074    7    4    4    3
 -0.01489560228243867    7    4    7    2
 0.2238563897183909    7    4    7    4
 -0.004863330650762676    7    5    5    1
 -0.01388775289127504    7    5    5    3
 0.02806995122411744    7    5    7    5
 -0.004863330650762675    7    6    6    1
 -0.01388775289127504    7    6    6    3
 0.02806995122411744    7    6    7    6
 0.6856964531152956    7    7    1    1
 0.6856339576606824    7    7    2    2
 -0.00899419236970121    7    7    3    1
 0.5426750584677466    7    7    3    3
 0.003716440432394096    7    7    4    2
 0.5573787469018855    7    7    4    4
 0.5179470240704798    7    7    5    5
 0.5179470240704798    7    7    6    6
 -0.002701330214802453    7    7    7    1
 0.01623852005335673    7    7    7    3
 0.5851463356097888    7    7    7    7
 0.01127445657144272    8    1    5    2
 -0.01341515574592474    8    1    5    4
 0.0009306425042767935    8    1    6    2
 -0.00110734509105063    8    1    6    4
 0.01383089062606153    8    1    8    1
 0.01185395720678891    8    2    5    1
 0.01880998255387331    8    2    5    3
 0.0009784769980363064    8    2    6    1
 0.001552657474745091    8    2    6    3
 -0.006205262205825859    8    2    7    5
 -0.0005122092335298198    8    2    7    6
 0.01451505484931135    8    2    8    2
 0.01138871735764856    8    3    5    2
 -0.04269349449237105    8    3    5    4
 0.0009400740847296007    8    3    6    2
 -0.003524106051492234    8    3    6    4
 0.01343783552933326    8    3    8    1
 0.04417685551869979    8    3    8    3
 -0.01555630737902437    8    4    5    1
 -0.07384250619252719    8    4    5    3
 -0.001284085025719535    8    4    6    1
 -0.006095280464262266    8    4    6    3
 0.0373596971256621    8    4    7    5
 0.003083831302354255    8    4    7    6
 -0.01854077963508263    8    4    8    2
 0.0823671823503314    8    4    8    4
 -2.509998936126023e-12    8    5    1    1
 0.2741246391574514    8    5    2    1
 2.510272453229087e-12    8    5    2    2
 -0.008839450212874557    8    5    3    2
 0.002719416347044827    8    5    4    1
 -0.09602817401763312    8    5    4    3
 -0.003792516914717804    8    5    7    2
 0.1569261857605035    8    5    7    4
 0.1863021406326357    8    5    8    5
 0.0226274356597941    8    6    2    1
 -0.0007296465271218781    8    6    3    2
 0.0002244724101200041    8    6    4    1
 -0.007926581630130134    8    6    4    3
 -0.0003130507813533962    8    6    7    2
 0.01295336742638871    8    6    7    4
 0.01381202505070084    8    6    8    5
 0.02011367807048691    8    6    8    6
 -0.007009747279272995    8    7    5    2
 0.03903001090436351    8    7    5    4
 -0.0005786149178004489    8    7    6    2
 0.003221706240103011    8    7    6    4
 -0.008623847970378299    8    7    8    1
 -0.02500883222639756    8    7    8    3
 0.03823758419689652    8    7    8    7
 0.7281279704804627    8    8    1    1
 0.7281576438210757    8    8    2    2
 -0.005956749688242203    8    8    3    1
 0.5964855161686173    8    8    3    3
 0.007748290093237818    8    8    4    2
 0.5361164649092676    8    8    4    4
 0.5870781959066592    8    8    5    5
 0.003753202242489099    8    8    6    5
 0.5419190749179206    8    8    6    6
 0.005359788897014962    8    8    7    1
 0.02925362294320429    8    8    7    3
 0.5408062448052375    8    8    7    7
 0.6050878058226856    8    8    8    8
 -0.0009306425042767939    9    1    5    2
 0.00110734509105063    9    1    5    4
 0.01127445657144272    9    1    6    2
 -0.01341515574592473    9    1    6    4
 0.01383089062606153    9    1    9    1
 -0.0009784769980363071    9    2    5    1
 -0.001552657474745092    9    2    5    3
 0.01185395720678891    9    2    6    1
 0.01880998255387331    9    2    6    3
 0.0005122092335298201    9    2    7    5
 -0.006205262205825857    9    2    7    6
 0.01451505484931135    9    2    9    2
 -0.000940074084729601    9    3    5    2
 0.003524106051492237    9    3    5    4
 0.01138871735764856    9    3    6    2
 -0.04269349449237106    9    3    6    4
 0.01343783552933326    9    3    9    1
 0.04417685551869981    9    3    9    3
 0.001284085025719536    9    4    5    1
 0.006095280464262269    9    4    5    3
 -0.01555630737902438    9    4    6    1
 -0.07384250619252719    9    4    6    3
 -0.003083831302354258    9    4    7    5
 0.0373596971256621    9    4    7    6
 -0.01854077963508263    9    4    9    2
 0.08236718235033139    9    4    9    4
 -0.02262743565979411    9    5    2    1
 0.0007296465271218774    9    5    3    2
 -0.0002244724101200025    9    5    4    1
 0.007926581630130136    9    5    4    3
 0.0003130507813533964    9    5    7    2
 -0.01295336742638872    9    5    7    4
 -0.01381202505070083    9    5    8    5
 0.01783346926381567    9    5    8    6
 0.02011367807048691    9    5    9    5
 -2.510305480737766e-12    9    6    1    1
 0.2741246391574515    9    6    2    1
 2.509910343256004e-12    9    6    2    2
 -0.008839450212874569    9    6    3    2
 0.002719416347044835    9    6    4    1
 -0.09602817401763315    9    6    4    3
 -0.003792516914717805    9    6    7    2
 0.1569261857605035    9    6    7    4
 0.1483549932983329    9    6    8    5
 0.01381202505070083    9    6    8    6
 -0.01381202505070086    9    6    9    5
 0.1863021406326358    9    6    9    6
 0.0005786149178004491    9    7    5    2
 -0.003221706240103013    9    7    5    4
 -0.007009747279272994    9    7    6    2
 0.03903001090436351    9    7    6    4
 -0.008623847970378297    9    7    9    1
 -0.02500883222639757    9    7    9    3
 0.03823758419689653    9    7    9    7
 -0.003753202242489114    9    8    5    5
 0.02257956049436925    9    8    6    5
 0.003753202242489249    9    8    6    6
 0.02508367351083331    9    8    9    8
 0.728127970480463    9    9    1    1
 0.7281576438210761    9    9    2    2
 -0.005956749688242233    9    9    3    1
 0.5964855161686174    9    9    3    3
 0.007748290093237842    9    9    4    2
 0.5361164649092677    9    9    4    4
 0.5419190749179208    9    9    5    5
 -0.003753202242489279    9    9    6    5
 0.5870781959066593    9    9    6    6
 0.005359788897014978    9    9    7    1
 0.02925362294320431    9    9    7    3
 0.5408062448052378    9    9    7    7
 0.5549204588010185    9    9    8    8
 0.6050878058226858    9    9    9    9
 1.973327090517814e-12   10    1    1    1
 -0.149788326596426   10    1    2    1
 0.02760748364677666   10    1    3    2
 -0.01481169159551599   10    1    4    1
 0.00813095222390332   10    1    4    3
 0.005042540618266114   10    1    7    2
 -0.0262767853162261   10    1    7    4
 -0.009894252433587289   10    1    8    5
 -0.0008167144734996431   10    1    8    6
 0.0008167144734996435   10    1    9    5
 -0.009894252433587289   10    1    9    6
 0.03601185191390062   10    1   10    1
 -0.1313836028591328   10    2    1    1
 -0.1311705689269656   10    2    2    2
 0.02808581895391147   10    2    3    1
 0.02219428953476772   10    2    3    3
 -0.01427784534006801   10    2    4    2
 -0.016251573151216   10    2    4    4
 0.00646748266609563   10    2    5    5
 0.006467482666095629   10    2    6    6
 0.00613879250068848   10    2    7    1
 0.01677526912384718   10    2    7    3
 -0.01213914919143081   10    2    7    7
 -0.0003434998064672526   10    2    8    8
 -0.000343499806467253   10    2    9    9
 0.03712726184928145   10    2   10    2
 -2.074277136163215e-12   10    3    1    1
 0.2265561372569691   10    3    2    1
 2.07480457510914e-12   10    3    2    2
 -0.005032132269957679   10    3    3    2
 0.01145558736871305   10    3    4    1
 -0.05909415198521837   10    3    4    3
 0.01089669326316944   10    3    7    2
 0.05707139073518755   10    3    7    4
 0.1018369087133671   10    3    8    5
 0.008406059764589394   10    3    8    6
 -0.008406059764589399   10    3    9    5
 0.1018369087133671   10    3    9    6
 0.00591578400259328   10    3   10    1
 0.1066678895411289   10    3   10    3
 -0.04899735956468097   10    4    1    1
 -0.04907312998076953   10    4    2    2
 -0.002891438124708004   10    4    3    1
 -0.07342586842697736   10    4    3    3
 -0.007459662695855708   10    4    4    2
 0.01990286955038051   10    4    4    4
 -0.04163111879957547   10    4    5    5
 -0.04163111879957546   10    4    6    6
 -0.0122121734721403   10    4    7    1
 -0.02954126951435042   10    4    7    3
 0.02755027164845088   10    4    7    7
 -0.02840692824515701   10    4    8    8
 -0.02840692824515701   10    4    9    9
 -0.01372402931089251   10    4   10    2
 0.04784174119862696   10    4   10    4
 0.008606721159148631   10    5    5    2
 -0.02385751675224097   10    5    5    4
 0.009875359816855105   10    5    8    1
 0.03392605730945107   10    5    8    3
 -0.004481496209674446   10    5    8    7
 -0.0008151549950417181   10    5    9    1
 -0.002800403791937742   10    5    9    3
 0.0003699221181127574   10    5    9    7
 0.03537388430730096   10    5   10    5
 0.008606721159148635   10    6    6    2
 -0.02385751675224098   10    6    6    4
 0.0008151549950417175   10    6    8    1
 0.002800403791937739   10    6    8    3
 -0.0003699221181127571   10    6    8    7
 0.009875359816855106   10    6    9    1
 0.03392605730945109   10    6    9    3
 -0.004481496209674451   10    6    9    7
 0.03537388430730096   10    6   10    6
 -1.768243253100037e-12   10    7    1    1
 0.1929882635571587   10    7    2    1
 1.766072653245666e-12   10    7    2    2
 -0.006850969329933856   10    7    3    2
 0.001699106609482936   10    7    4    1
 -0.05448177245728355   10    7    4    3
 -0.003418670239699917   10    7    7    2
 0.1242896690445971   10    7    7    4
 0.0915334613990707   10    7    8    5
 0.007555568572353268   10    7    8    6
 -0.007555568572353271   10    7    9    5
 0.09153346139907072   10    7    9    6
 -0.009567400225242372   10    7   10    1
 0.05879638178582782   10    7   10    3
 0.09155796808525191   10    7   10    7
 0.0111072286074736   10    8    5    1
 0.06155829751610535   10    8    5    3
 0.0009168387834333849   10    8    6    1
 0.00508128864538908   10    8    6    3
 0.0003529445752666063   10    8    7    5
 2.913357475951432e-05   10    8    7    6
 0.01264071758818269   10    8    8    2
 -0.03611998872175574   10    8    8    4
 0.04725061468982984   10    8   10    8
 -0.0009168387834333856   10    9    5    1
 -0.005081288645389084   10    9    5    3
 0.0111072286074736   10    9    6    1
 0.06155829751610536   10    9    6    3
 -2.913357475951465e-05   10    9    7    5
 0.0003529445752666106   10    9    7    6
 0.0126407175881827   10    9    9    2
 -0.03611998872175577   10    9    9    4
 0.04725061468982984   10    9   10    9
 0.8966076564455592   10   10    1    1
 0.8966814761914589   10   10    2    2
 -0.005525365746314383   10   10    3    1
 0.7247546828233494   10   10    3    3
 0.02098428439074299   10   10    4    2
 0.5597423513591313   10   10    4    4
 0.6203727571769713   10   10    5    5
 0.6203727571769713   10   10    6    6
 0.02289480637687981   10   10    7    1
 0.08749981833908071   10   10    7    3
 0.594324019860728   10   10    7    7
 0.6217522354359248   10   10    8    8
 0.6217522354359248   10   10    9    9
 0.01350584651636884   10   10   10    2
 -0.04545452672705155   10   10   10    4
 0.7604132058620526   10   10   10   10
 -27.55650912752362    1    1  0  0
 -27.55570935876524    2    2  0  0
 0.4637803172218379    3    1  0  0
 2.125251267955336e-12    3    2  0  0
 -9.543557699790322    3    3  0  0
 2.288173772016169e-12    4    1  0  0
 -0.4988404560518543    4    2  0  0
 -7.677984982104604    4    4  0  0
 -8.060525611866133    5    5  0  0
 -8.060525611866133    6    6  0  0
 -0.2630920542751297    7    1  0  0
 -1.213204709660549e-12    7    2  0  0
 -0.7082351978854825    7    3  0  0
 -7.780087257548437    7    7  0  0
 -7.836565368348605    8    8  0  0
 -7.836565368348606    9    9  0  0
 -1.06220631296677e-12   10    1  0  0
 0.2319753601129591   10    2  0  0
 0.4229047249151103   10    4  0  0
 -8.312518837150199   10   10  0  0
 23.62398263035714  0  0  0  0
