 &FCI NORB=  20,NELEC=20,MS2=0,
  ORBSYM=1,1,1,1,1,1,1,1,1,1,1,1,1,1,1,1,1,1,1,1,
  ISYM=1,
 &END
 0.2071665886247404    1    1    1    1
 -0.03731017599031038    2    1    1    1
 0.1113974182491984    2    1    2    1
 0.1751155658213203    2    2    1    1
 0.04107532569471334    2    2    2    1
 0.2153410222325727    2    2    2    2
 -0.01603557222621926    3    1    1    1
 -0.006179827938518945    3    1    2    1
 0.01363881884569959    3    1    2    2
 0.07425014608504502    3    1    3    1
 -0.008946408358781263    3    2    1    1
 0.03728912986077218    3    2    2    1
 0.01742496281977761    3    2    2    2
 -0.01498940956356823    3    2    3    1
 0.05284442970789039    3    2    3    2
 0.1767093581280178    3    3    1    1
 -0.02550121908647021    3    3    2    1
 0.1492654644791785    3    3    2    2
 -0.01290337282187879    3    3    3    1
 -0.01226379800681386    3    3    3    2
 0.1957305569386066    3    3    3    3
 -0.01141091906821519    4    1    1    1
 0.02020504711827254    4    1    2    1
 0.003176568888508431    4    1    2    2
 0.01464429818834353    4    1    3    1
 -0.03882429363330791    4    1    3    2
 0.0003327850874615001    4    1    3    3
 0.05535433818367546    4    1    4    1
 0.02870086881065438    4    2    1    1
 0.0007527598519061137    4    2    2    1
 0.005507689631126512    4    2    2    2
 -0.05022734185655003    4    2    3    1
 -0.01452429733291979    4    2    3    2
 0.0003354293440075848    4    2    3    3
 0.01543245607547825    4    2    4    1
 0.06931482720544112    4    2    4    2
 0.02507538166870058    4    3    1    1
 -0.07444566896608039    4    3    2    1
 -0.02707418565731487    4    3    2    2
 0.006193377820801848    4    3    3    1
 -0.03273047190075153    4    3    3    2
 0.02579072933281518    4    3    3    3
 -0.002557360871673386    4    3    4    1
 0.004053217229762148    4    3    4    2
 0.08036424927254031    4    3    4    3
 0.1594474165037535    4    4    1    1
 0.02769910899179972    4    4    2    1
 0.1768593843681828    4    4    2    2
 -0.006771860517500365    4    4    3    1
 0.009763011123708802    4    4    3    2
 0.1609068711408171    4    4    3    3
 0.003691795697223268    4    4    4    1
 0.004886148102140112    4    4    4    2
 -0.02684653915863573    4    4    4    3
 0.1903221663542136    4    4    4    4
 -0.02752571975323095    5    1    1    1
 0.01028522268099906    5    1    2    1
 -0.03074010055088106    5    1    2    2
 -0.01170579686330281    5    1    3    1
 -4.820330534955226e-05    5    1    3    2
 0.02164908731186457    5    1    3    3
 0.006958583354819535    5    1    4    1
 -0.01949315476737148    5    1    4    2
 0.0008504779141426896    5    1    4    3
 0.002284360161598719    5    1    4    4
 0.052006465897394    5    1    5    1
 0.01098247218674118    5    2    1    1
 -0.0364278161531232    5    2    2    1
 -0.01421915123113266    5    2    2    2
 -0.001435947992516163    5    2    3    1
 0.005124359142029539    5    2    3    2
 -0.0003343574869039938    5    2    3    3
 -0.02807121003579303    5    2    4    1
 -0.01093882675838936    5    2    4    2
 -0.005747146752280965    5    2    4    3
 -0.001041685405444948    5    2    4    4
 -0.009314493644665776    5    2    5    1
 0.04413040175667866    5    2    5    2
 -0.02319648197676738    5    3    1    1
 -0.002845433085436711    5    3    2    1
 -0.0009104142928532637    5    3    2    2
 0.05044598765856559    5    3    3    1
 -0.006526867815740175    5    3    3    2
 -0.01787858764412169    5    3    3    3
 0.006754490897935042    5    3    4    1
 -0.0350902430481313    5    3    4    2
 0.008123860591304361    5    3    4    3
 0.006978406900368    5    3    4    4
 -0.003692079352724155    5    3    5    1
 -0.003972302939681141    5    3    5    2
 0.06492331129291344    5    3    5    3
 0.01507162072974554    5    4    1    1
 -0.04947246253456301    5    4    2    1
 -0.02053596001870201    5    4    2    2
 0.007096173317249395    5    4    3    1
 -0.03456507219644839    5    4    3    2
 0.01478032431494878    5    4    3    3
 0.01168973569423175    5    4    4    1
 0.007318957037719436    5    4    4    2
 0.0457488896659379    5    4    4    3
 -0.01781528096997712    5    4    4    4
 -0.001018490776168839    5    4    5    1
 0.0006915396350970261    5    4    5    2
 0.007404297863222054    5    4    5    3
 0.05279447816562321    5    4    5    4
 0.1739616079550404    5    5    1    1
 -0.01995768136675471    5    5    2    1
 0.1540455785980018    5    5    2    2
 -0.009702517737652596    5    5    3    1
 -0.008619934432381645    5    5    3    2
 0.1734285856063246    5    5    3    3
 -0.001370216486411077    5    5    4    1
 0.008383460544106793    5    5    4    2
 0.0160732794417759    5    5    4    3
 0.1540477028590952    5    5    4    4
 0.001134241127168663    5    5    5    1
 0.003054649866383671    5    5    5    2
 -0.01275343159625287    5    5    5    3
 0.0134770268526982    5    5    5    4
 0.1829790510161249    5    5    5    5
 0.003317986775459939    6    1    1    1
 -0.01610052438254979    6    1    2    1
 -0.006266105577470597    6    1    2    2
 0.01046606781423585    6    1    3    1
 -0.02140844291548637    6    1    3    2
 -0.004199545924944651    6    1    3    3
 0.01304363812233677    6    1    4    1
 0.00169387064951546    6    1    4    2
 -0.01646700996201863    6    1    4    3
 0.003769262416789113    6    1    4    4
 -0.009498506540526371    6    1    5    1
 0.02619046864163353    6    1    5    2
 -0.001404986728153502    6    1    5    3
 0.002764489442721499    6    1    5    4
 0.0006715210777541655    6    1    5    5
 0.04079092575305276    6    1    6    1
 -0.01617989227608721    6    2    1    1
 -0.007441821048682748    6    2    2    1
 -0.03560901677376407    6    2    2    2
 -0.02312134126055448    6    2    3    1
 -0.004797709083106786    6    2    3    2
 0.009553965668590797    6    2    3    3
 0.0006142825224717677    6    2    4    1
 0.002296701709473201    6    2    4    2
 -0.002684239820431113    6    2    4    3
 0.01380794473504064    6    2    4    4
 0.03180231623160158    6    2    5    1
 0.01031358050679247    6    2    5    2
 0.005756294606565899    6    2    5    3
 0.000184557189476183    6    2    5    4
 -0.001070057439993577    6    2    5    5
 0.007520548041285897    6    2    6    1
 0.04749052454037486    6    2    6    2
 0.01471558533273668    6    3    1    1
 -0.03016755384032126    6    3    2    1
 -0.007055272213771183    6    3    2    2
 -0.008325494374670292    6    3    3    1
 0.01606710350706864    6    3    3    2
 0.005584948694246627    6    3    3    3
 -0.03502349961175791    6    3    4    1
 -0.00785545155946037    6    3    4    2
 0.01110442417251122    6    3    4    3
 -0.003553847818382849    6    3    4    4
 -0.006080203155227174    6    3    5    1
 0.02391003322029071    6    3    5    2
 -0.009728502293251732    6    3    5    3
 -0.01994729134173833    6    3    5    4
 0.000939985772941165    6    3    5    5
 4.558377552293892e-05    6    3    6    1
 0.002348096799450881    6    3    6    2
 0.04702321594947716    6    3    6    3
 0.028938158056371    6    4    1    1
 0.0004153087372361799    6    4    2    1
 0.007944918079519175    6    4    2    2
 -0.04256849559711799    6    4    3    1
 -0.007840555954442141    6    4    3    2
 0.01907697790385247    6    4    3    3
 0.008006151444417256    6    4    4    1
 0.04430369001372187    6    4    4    2
 0.0002631076137165598    6    4    4    3
 0.007032398464817254    6    4    4    4
 -0.002292685442974591    6    4    5    1
 -0.004249812874230892    6    4    5    2
 -0.04330356325553018    6    4    5    3
 0.009463334307323889    6    4    5    4
 0.00106330996616302    6    4    5    5
 0.001696133811787669    6    4    6    1
 0.0008339822848281988    6    4    6    2
 -0.007981135772237    6    4    6    3
 0.05749325259377117    6    4    6    4
 -0.0217694319919471    6    5    1    1
 0.06754488263042795    6    5    2    1
 0.02503528593100062    6    5    2    2
 -0.008562023418249002    6    5    3    1
 0.03440819821954286    6    5    3    2
 -0.01973231017005903    6    5    3    3
 -0.002036639998024427    6    5    4    1
 -0.003815259165684953    6    5    4    2
 -0.06013624455612959    6    5    4    3
 0.02056404274930237    6    5    4    4
 0.002509363962249612    6    5    5    1
 -0.005350684275175657    6    5    5    2
 -0.006960445077602034    6    5    5    3
 -0.04378994207707355    6    5    5    4
 -0.01710213220694075    6    5    5    5
 -0.001112981880977242    6    5    6    1
 -0.001112440701340879    6    5    6    2
 -0.003204650959557504    6    5    6    3
 -0.003500043014581783    6    5    6    4
 0.06954992612587581    6    5    6    5
 0.160330401611727    6    6    1    1
 0.01822763656409634    6    6    2    1
 0.1713048727857091    6    6    2    2
 -0.005569572994555645    6    6    3    1
 0.006749434519897932    6    6    3    2
 0.1583427385633454    6    6    3    3
 0.002161574334417239    6    6    4    1
 0.005101664248827209    6    6    4    2
 -0.0159691286897004    6    6    4    3
 0.1680992029496767    6    6    4    4
 -0.001798802678995637    6    6    5    1
 -0.002593635906448706    6    6    5    2
 -0.007025277181451701    6    6    5    3
 -0.009704816607710335    6    6    5    4
 0.1611300407218032    6    6    5    5
 0.000801846559771272    6    6    6    1
 -0.0025797043282501    6    6    6    2
 -0.003136911679414659    6    6    6    3
 0.004791245682147037    6    6    6    4
 0.01601468865088173    6    6    6    5
 0.1783469794804119    6    6    6    6
 0.001744955543457259    7    1    1    1
 -0.001292747210685087    7    1    2    1
 -0.004878244392346505    7    1    2    2
 -0.01801064181316022    7    1    3    1
 0.005273020160194266    7    1    3    2
 -0.01345182816284315    7    1    3    3
 -0.007345173612987295    7    1    4    1
 0.02262490673967372    7    1    4    2
 0.001842015139342156    7    1    4    3
 0.01236093047362906    7    1    4    4
 -0.01074417421707344    7    1    5    1
 0.000776924748042112    7    1    5    2
 0.01693788527039481    7    1    5    3
 0.001968771661071641    7    1    5    4
 -0.002818166672112703    7    1    5    5
 -0.006136012894601665    7    1    6    1
 0.01809159841429474    7    1    6    2
 -0.0007247957521193556    7    1    6    3
 -0.001083473569469642    7    1    6    4
 -0.0003790339176396126    7    1    6    5
 -0.00108050872598242    7    1    6    6
 0.03874795703999326    7    1    7    1
 -0.001113160441909448    7    2    1    1
 -0.004062552937504613    7    2    2    1
 -0.004934826569159922    7    2    2    2
 0.005856993273936799    7    2    3    1
 -0.02472545139888533    7    2    3    2
 0.0007374146910677382    7    2    3    3
 0.02511414683118688    7    2    4    1
 0.009832045655585068    7    2    4    2
 -0.003728428137895512    7    2    4    3
 0.005093700990655617    7    2    4    4
 0.0001607467500499367    7    2    5    1
 0.0007171561908253827    7    2    5    2
 -0.0009566695279285827    7    2    5    3
 -0.009694904654053597    7    2    5    4
 -0.001348889812601897    7    2    5    5
 0.02285798045418689    7    2    6    1
 0.008802956143615424    7    2    6    2
 0.006382018164880205    7    2    6    3
 -0.0002510807330186663    7    2    6    4
 -0.0004258918868532977    7    2    6    5
 0.0004556582593791775    7    2    6    6
 -0.004666887613298235    7    2    7    1
 0.03524036914094451    7    2    7    2
 -0.02492224025637713    7    3    1    1
 0.008219628204397766    7    3    2    1
 -0.03111468655296186    7    3    2    2
 -0.01859842727414284    7    3    3    1
 0.0017833123979295    7    3    3    2
 0.003966360744531197    7    3    3    3
 0.002937208994594207    7    3    4    1
 -0.004219952007024453    7    3    4    2
 -0.003628243702729306    7    3    4    3
 -0.008471681279489435    7    3    4    4
 0.03284247418365997    7    3    5    1
 -0.003755432672317005    7    3    5    2
 -0.009488302116332573    7    3    5    3
 0.0004846668651268819    7    3    5    4
 0.0137360240063327    7    3    5    5
 -0.004531555804156247    7    3    6    1
 0.02244216032410186    7    3    6    2
 -0.007195207422280667    7    3    6    3
 -0.0124677451549475    7    3    6    4
 0.0007050174702017391    7    3    6    5
 0.0004663897130274867    7    3    6    6
 -0.001553560421855062    7    3    7    1
 -0.001630391212232128    7    3    7    2
 0.04504865515900405    7    3    7    3
 -0.01172204518355941    7    4    1    1
 0.03828795524809714    7    4    2    1
 0.0151877417889442    7    4    2    2
 0.003055850478454497    7    4    3    1
 -0.005735850933836778    7    4    3    2
 -0.004576498683967402    7    4    3    3
 0.02846179861471525    7    4    4    1
 0.009659634979926866    7    4    4    2
 -0.01345033110955566    7    4    4    3
 0.007885600782882555    7    4    4    4
 0.004952703419353601    7    4    5    1
 -0.02843310345229237    7    4    5    2
 0.003244980270587786    7    4    5    3
 3.544907425064069e-05    7    4    5    4
 -0.002154197206918756    7    4    5    5
 -0.007380159846906098    7    4    6    1
 -0.00519979205240041    7    4    6    2
 -0.03068442991738558    7    4    6    3
 0.008977296247778819    7    4    6    4
 -0.00542451879603688    7    4    6    5
 0.001578805156122976    7    4    6    6
 -0.0009028461104280667    7    4    7    1
 0.0006174322192400273    7    4    7    2
 0.004585477054740516    7    4    7    3
 0.04408502303161835    7    4    7    4
 -0.02811064784845702    7    5    1    1
 -0.0005613260513497963    7    5    2    1
 -0.005848377197603864    7    5    2    2
 0.04806557798669594    7    5    3    1
 -0.004440101512351769    7    5    3    2
 -0.02015564535683089    7    5    3    3
 0.005696645701419797    7    5    4    1
 -0.03758167291231016    7    5    4    2
 0.003973702046119616    7    5    4    3
 -0.006565966032198699    7    5    4    4
 -0.001000726100530541    7    5    5    1
 -0.002396799428255117    7    5    5    2
 0.0477160408830438    7    5    5    3
 0.002234284618830929    7    5    5    4
 -0.01258083697736965    7    5    5    5
 0.0008616935360077431    7    5    6    1
 -0.00253957876525974    7    5    6    2
 -0.005423076808100578    7    5    6    3
 -0.04090371467468228    7    5    6    4
 -0.006905109522701096    7    5    6    5
 0.003822706612143078    7    5    6    6
 0.001191835465129589    7    5    7    1
 0.0009563477011218407    7    5    7    2
 -0.001248715679683986    7    5    7    3
 0.003932110124468636    7    5    7    4
 0.05759976618170274    7    5    7    5
 -0.01777737316108658    7    6    1    1
 0.05629108696773862    7    6    2    1
 0.02273036678193275    7    6    2    2
 -0.006560757359687511    7    6    3    1
 0.0350875998450133    7    6    3    2
 -0.01738917846606339    7    6    3    3
 -0.008725767944054283    7    6    4    1
 -0.006887868283462267    7    6    4    2
 -0.05100415398371107    7    6    4    3
 0.01858705565386823    7    6    4    4
 0.0008643274605643432    7    6    5    1
 -0.002301422953457519    7    6    5    2
 -0.005193401969595956    7    6    5    3
 -0.04462165793539986    7    6    5    4
 -0.01402301901868658    7    6    5    5
 -0.002948540386489396    7    6    6    1
 -0.001263058836439936    7    6    6    2
 0.006219782309115702    7    6    6    3
 -0.006336976799220212    7    6    6    4
 0.05093554567481637    7    6    6    5
 0.01328606036808242    7    6    6    6
 -0.0002836656572516342    7    6    7    1
 0.001195220454019178    7    6    7    2
 0.0004215970799232235    7    6    7    3
 0.0008773848885178038    7    6    7    4
 -0.003595223174287083    7    6    7    5
 0.05803647367686512    7    6    7    6
 0.1701323491297475    7    7    1    1
 -0.01300164584910207    7    7    2    1
 0.1568748338924529    7    7    2    2
 -0.007490611295176721    7    7    3    1
 -0.005330413258916695    7    7    3    2
 0.1692225512769675    7    7    3    3
 -0.001257768035150908    7    7    4    1
 0.007123807139371764    7    7    4    2
 0.01091800782346555    7    7    4    3
 0.1593562802538504    7    7    4    4
 0.0003847881656390642    7    7    5    1
 0.001718204265340796    7    7    5    2
 -0.006513351035724668    7    7    5    3
 0.008397517022293612    7    7    5    4
 0.167890675579163    7    7    5    5
 -0.0003942709540475007    7    7    6    1
 0.001701337252111569    7    7    6    2
 0.001437543831083759    7    7    6    3
 0.007099537210022487    7    7    6    4
 -0.00958392160110501    7    7    6    5
 0.1597724630824062    7    7    6    6
 0.001113726335924309    7    7    7    1
 -0.0008835604923642399    7    7    7    2
 0.0006257944250026536    7    7    7    3
 -0.002329266737551645    7    7    7    4
 -0.008212354831139329    7    7    7    5
 -0.01015567198711811    7    7    7    6
 0.1753037293868475    7    7    7    7
 0.0009306167651668823    8    1    1    1
 -0.003009988725623482    8    1    2    1
 -0.000334801124267682    8    1    2    2
 -0.0009320886353091427    8    1    3    1
 0.007917091335128055    8    1    3    2
 -0.008602687998970198    8    1    3    3
 -0.01206990755935836    8    1    4    1
 -0.003335471010418138    8    1    4    2
 -0.0144873641082565    8    1    4    3
 0.00091621783828264    8    1    4    4
 -0.008794252727231279    8    1    5    1
 0.01901852964685163    8    1    5    2
 0.002489743289064654    8    1    5    3
 0.01292770513153636    8    1    5    4
 0.002321150689967218    8    1    5    5
 0.01053111773140638    8    1    6    1
 0.0008262455898805609    8    1    6    2
 -0.01261719811849976    8    1    6    3
 0.001824738902241122    8    1    6    4
 -0.000351230787764293    8    1    6    5
 0.0005082275778870141    8    1    6    6
 0.006533290823076296    8    1    7    1
 -0.01823973693995036    8    1    7    2
 0.001273669230449324    8    1    7    3
 -0.0004109052052378199    8    1    7    4
 0.00024029781093021    8    1    7    5
 -0.0031891214276505    8    1    7    6
 0.0004122828790106556    8    1    7    7
 0.03137592570089274    8    1    8    1
 -0.002313931862354038    8    2    1    1
 -0.0006031388470719443    8    2    2    1
 -0.0007425909917205261    8    2    2    2
 0.008082270625712875    8    2    3    1
 0.003482768633797638    8    2    3    2
 0.01928021154608256    8    2    3    3
 -0.003873955919072264    8    2    4    1
 -0.02471778377604147    8    2    4    2
 -0.002275324453607755    8    2    4    3
 0.003183152845174162    8    2    4    4
 0.02025486603751023    8    2    5    1
 0.004903018232855689    8    2    5    2
 -0.005152525940247062    8    2    5    3
 0.002787973197251603    8    2    5    4
 -0.00697984741596236    8    2    5    5
 0.0004090270885307742    8    2    6    1
 0.002546569899744318    8    2    6    2
 -0.00131047355710502    8    2    6    3
 0.01115762577901771    8    2    6    4
 -0.0008869143315488535    8    2    6    5
 -0.001440399725540288    8    2    6    6
 -0.02188746653506091    8    2    7    1
 -0.007290890363820618    8    2    7    2
 -0.005712971417099031    8    2    7    3
 0.0004538259528453978    8    2    7    4
 -0.002238278914365852    8    2    7    5
 -0.0007826041285806198    8    2    7    6
 -0.0002480395145472789    8    2    7    7
 0.003126200931628141    8    2    8    1
 0.03443511854373016    8    2    8    2
 -0.001724052596026535    8    3    1    1
 0.01116576071478709    8    3    2    1
 0.004181368445077648    8    3    2    2
 -0.01168389138328033    8    3    3    1
 0.02411205671464106    8    3    3    2
 7.551587929241282e-05    8    3    3    3
 -0.01995337229014904    8    3    4    1
 -0.003612972797728205    8    3    4    2
 0.002418563898746737    8    3    4    3
 -0.0008680102867416572    8    3    4    4
 0.004360074058549496    8    3    5    1
 -0.007848090107852375    8    3    5    2
 -0.003673939148768175    8    3    5    3
 -0.0089065401859041    8    3    5    4
 0.002292757725919948    8    3    5    5
 -0.0241960058936806    8    3    6    1
 -0.003363515828590917    8    3    6    2
 0.006592082460286675    8    3    6    3
 -0.001295584140924385    8    3    6    4
 -0.01236353961560143    8    3    6    5
 -0.001992366606725307    8    3    6    6
 0.004572472193049623    8    3    7    1
 -0.01777657620715821    8    3    7    2
 0.007234124460208166    8    3    7    3
 0.01715880819113642    8    3    7    4
 0.00100720043815717    8    3    7    5
 0.001907956828592359    8    3    7    6
 -2.196911003323095e-05    8    3    7    7
 0.0008396624851781289    8    3    8    1
 0.001213566206300239    8    3    8    2
 0.03795754185341879    8    3    8    3
 -0.01763280343725013    8    4    1    1
 -0.005815552294806099    8    4    2    1
 -0.03591343488790794    8    4    2    2
 -0.02350106765954106    8    4    3    1
 -0.003714080527092616    8    4    3    2
 0.003318169578267692    8    4    3    3
 0.0005837201827418076    8    4    4    1
 0.004531427415669653    8    4    4    2
 0.000238319073124096    8    4    4    3
 -0.006680458820715726    8    4    4    4
 0.02636906204224726    8    4    5    1
 0.00555537147620246    8    4    5    2
 -0.01062752974402681    8    4    5    3
 0.003048794558472033    8    4    5    4
 0.003452069212939183    8    4    5    5
 0.003351209264793997    8    4    6    1
 0.02836470745842234    8    4    6    2
 0.0002413510389196016    8    4    6    3
 0.0003898857653762129    8    4    6    4
 0.001392293111158812    8    4    6    5
 0.008897400235594974    8    4    6    6
 0.004198825471920633    8    4    7    1
 0.00366156701040789    8    4    7    2
 0.03068730607359047    8    4    7    3
 -0.007862574614788382    8    4    7    4
 0.006012461672845179    8    4    7    5
 -0.0006273961644275923    8    4    7    6
 0.0003238107691229063    8    4    7    7
 0.0004585336211685349    8    4    8    1
 -0.0026120746400159    8    4    8    2
 -0.003426712187705498    8    4    8    3
 0.04206277090011391    8    4    8    4
 -0.01636080324119831    8    5    1    1
 0.03658856087270215    8    5    2    1
 0.009467293350337948    8    5    2    2
 0.005649576314325677    8    5    3    1
 -0.009968309371733054    8    5    3    2
 -0.006020770294314321    8    5    3    3
 0.03202317083431474    8    5    4    1
 0.00715900669626774    8    5    4    2
 -0.01423595964430055    8    5    4    3
 0.005174913626849773    8    5    4    4
 0.007696843175176295    8    5    5    1
 -0.0264840740473272    8    5    5    2
 0.006184186206901037    8    5    5    3
 0.005911701439528046    8    5    5    4
 -0.003887639639705521    8    5    5    5
 -0.003723569980312027    8    5    6    1
 -0.002665093476722584    8    5    6    2
 -0.03609288160079478    8    5    6    3
 0.005686370321644816    8    5    6    4
 0.006872194544661112    8    5    6    5
 0.002735546725526885    8    5    6    6
 -0.001028356594169684    8    5    7    1
 -0.0006938377073646578    8    5    7    2
 0.006633641040648213    8    5    7    3
 0.03121542667051667    8    5    7    4
 0.006616470854655791    8    5    7    5
 -0.01210192568326795    8    5    7    6
 -0.0008755923060575037    8    5    7    7
 0.002725841940701075    8    5    8    1
 2.235377556216388e-05    8    5    8    2
 0.0006729180749426098    8    5    8    3
 -0.001930238946604068    8    5    8    4
 0.0457567225589062    8    5    8    5
 0.03071594729741878    8    6    1    1
 0.0003587081924632824    8    6    2    1
 0.01053971105453601    8    6    2    2
 -0.04164532394107429    8    6    3    1
 -0.004722992353712397    8    6    3    2
 0.019900046679041    8    6    3    3
 0.004588002950633832    8    6    4    1
 0.0416248477692687    8    6    4    2
 1.97193012530252e-05    8    6    4    3
 0.006225535944138142    8    6    4    4
 -0.003500214937288234    8    6    5    1
 -0.003393309557515279    8    6    5    2
 -0.04424714108341727    8    6    5    3
 0.005655941456017252    8    6    5    4
 0.01362469514636717    8    6    5    5
 0.0005996826392989222    8    6    6    1
 -0.002568114545241138    8    6    6    2
 -0.003771551464086994    8    6    6    3
 0.04440022359320668    8    6    6    4
 -0.0003388659274087794    8    6    6    5
 0.006351138933578443    8    6    6    6
 -0.00233894906910598    8    6    7    1
 0.000192872907127376    8    6    7    2
 -0.00210134627435076    8    6    7    3
 0.004127364518233553    8    6    7    4
 -0.04409312435433992    8    6    7    5
 -0.006105348763642877    8    6    7    6
 -0.0001760845959066833    8    6    7    7
 0.0004225167781709217    8    6    8    1
 0.00157783216849869    8    6    8    2
 -0.001080574619594974    8    6    8    3
 -0.0008220927615238851    8    6    8    4
 0.004093351097415516    8    6    8    5
 0.05401176933680357    8    6    8    6
 0.019761929177379    8    7    1    1
 -0.06238355971255128    8    7    2    1
 -0.02341209514750868    8    7    2    2
 0.008912621969055807    8    7    3    1
 -0.03488791793897005    8    7    3    2
 0.01898929002597548    8    7    3    3
 0.00559169534500978    8    7    4    1
 0.004984813756893741    8    7    4    2
 0.06017174719425711    8    7    4    3
 -0.02053170952159769    8    7    4    4
 -0.001498335540184103    8    7    5    1
 4.329641459383709e-05    8    7    5    2
 0.008642765296396175    8    7    5    3
 0.04522488586947206    8    7    5    4
 0.01464716501769735    8    7    5    5
 -0.002428567171844235    8    7    6    1
 -0.0001275265905425278    8    7    6    2
 -0.00129027234038618    8    7    6    3
 0.003430639681884228    8    7    6    4
 -0.05707740703597166    8    7    6    5
 -0.01370167341048976    8    7    6    6
 0.001331751231421737    8    7    7    1
 -0.00153682248805681    8    7    7    2
 -0.002002114035764183    8    7    7    3
 -0.001718611309868181    8    7    7    4
 0.005782067526177818    8    7    7    5
 -0.05047907972018302    8    7    7    6
 0.01041334527562382    8    7    7    7
 -0.001941688166429093    8    7    8    1
 -0.0002436442071540026    8    7    8    2
 0.001606821963568091    8    7    8    3
 5.272510102940966e-05    8    7    8    4
 -0.001577568695723916    8    7    8    5
 0.001983807443647116    8    7    8    6
 0.06492876373950571    8    7    8    7
 0.1601868000203808    8    8    1    1
 0.009875087844907232    8    8    2    1
 0.1655224769046076    8    8    2    2
 -0.003510416679277854    8    8    3    1
 0.004130714247969755    8    8    3    2
 0.1635802024153888    8    8    3    3
 0.0006963540399543991    8    8    4    1
 -0.0002231882402356404    8    8    4    2
 -0.009084578768781132    8    8    4    3
 0.1668274672331485    8    8    4    4
 0.003542123131197026    8    8    5    1
 -0.0006924244587958742    8    8    5    2
 -0.004520543295258401    8    8    5    3
 -0.005507005361415017    8    8    5    4
 0.1619770199704105    8    8    5    5
 0.0004788396727748705    8    8    6    1
 0.001210648046777965    8    8    6    2
 -0.001454875007798369    8    8    6    3
 0.003208426930065086    8    8    6    4
 0.008483051054839954    8    8    6    5
 0.1652533846501417    8    8    6    6
 -0.002646743707690891    8    8    7    1
 5.995556980651663e-06    8    8    7    2
 0.001242179959107539    8    8    7    3
 0.001188798761273154    8    8    7    4
 -0.005023263847482896    8    8    7    5
 0.006313019698832434    8    8    7    6
 0.1625160236064811    8    8    7    7
 0.0002596144136511581    8    8    8    1
 0.003622272427018428    8    8    8    2
 -0.0007676991038730084    8    8    8    3
 -9.043060942068217e-05    8    8    8    4
 0.001805287227760963    8    8    8    5
 0.004269998320364001    8    8    8    6
 -0.008572330970377561    8    8    8    7
 0.1732918686297235    8    8    8    8
 -0.0001608149786270056    9    1    1    1
 0.0004785940807343363    9    1    2    1
 0.001843449606110873    9    1    2    2
 0.002952029261640804    9    1    3    1
 -0.000880191949732187    9    1    3    2
 -0.01131692254810796    9    1    3    3
 0.0009782798966448999    9    1    4    1
 0.003371901673418054    9    1    4    2
 -0.004471556656218905    9    1    4    3
 -0.01755730807230774    9    1    4    4
 -0.0124962427532996    9    1    5    1
 0.002392704354625419    9    1    5    2
 -0.01329291336821697    9    1    5    3
 -9.954829848902628e-05    9    1    5    4
 0.0130629287975652    9    1    5    5
 0.005977453399182047    9    1    6    1
 -0.0187024327544503    9    1    6    2
 -0.001269335431072566    9    1    6    3
 -0.01034990179678604    9    1    6    4
 -0.001661975403283243    9    1    6    5
 0.004722863277685769    9    1    6    6
 -0.01055021408419856    9    1    7    1
 0.0007605508267374908    9    1    7    2
 0.01359556571552396    9    1    7    3
 0.001509748951870842    9    1    7    4
 0.002887233450536964    9    1    7    5
 -0.0001827898688204699    9    1    7    6
 -0.001257005643395438    9    1    7    7
 0.004788267774366783    9    1    8    1
 -0.01512625618116559    9    1    8    2
 0.001765991693205916    9    1    8    3
 0.004508797888063974    9    1    8    4
 0.0008457819323359817    9    1    8    5
 0.001567556384525349    9    1    8    6
 -0.001132696419935328    9    1    8    7
 -0.001507399342229356    9    1    8    8
 0.0316639254474257    9    1    9    1
 0.0003113694157887694    9    2    1    1
 0.001617588475509784    9    2    2    1
 0.001298756894034484    9    2    2    2
 -0.0009542642755688746    9    2    3    1
 -0.0008319229937625878    9    2    3    2
 0.00316892677591177    9    2    3    3
 0.003243287646891956    9    2    4    1