 &FCI NORB=  10,NELEC=14,MS2=0,
  ORBSYM=1,1,1,1,1,1,1,1,1,1,
  ISYM=1,
 &END
 2.306865664447672    1    1    1    1
 -3.045655329499131e-11    2    1    1    1
 1.824933981817308    2    1    2    1
 2.306351160735385    2    2    1    1
 3.046579956085364e-11    2    2    2    1
 2.305838106377281    2    2    2    2
 -0.1914404665989888    3    1    1    1
 1.655226716595296e-12    3    1    2    1
 -0.1913035533063535    3    1    2    2
 0.03094823078981726    3    1    3    1
 1.714164275340392e-12    3    2    1    1
 -0.1983666215425547    3    2    2    1
 -4.906835192070719e-12    3    2    2    2
 0.03068704056892582    3    2    3    2
 0.7868840776031881    3    3    1    1
 0.7869699869626146    3    3    2    2
 0.002022297985084705    3    3    3    1
 0.7472181500302741    3    3    3    3
 -4.681072448779321e-12    4    1    1    1
 0.1846139501174895    4    1    2    1
 1.482327403727092e-12    4    1    2    2
 -0.02601486006194384    4    1    3    2
 0.02871558478701917    4    1    4    1
 0.1915180728917873    4    2    1    1
 1.540434489866085e-12    4    2    2    1
 0.191469344379048    4    2    2    2
 -0.02581901859912861    4    2    3    1
 0.01827191418731462    4    2    3    3
 0.02891148239791232    4    2    4    2
 2.869755946549243e-12    4    3    1    1
 -0.1721198434090957    4    3    2    1
 -2.876186159898875e-12    4    3    2    2
 0.008300134306770296    4    3    3    2
 -0.004828713618123809    4    3    4    1
 0.05647626742435884    4    3    4    3
 0.667145892150207    4    4    1    1
 0.6670820515706281    4    4    2    2
 -0.01256365236949512    4    4    3    1
 0.5119501394611858    4    4    3    3
 0.004910151131338246    4    4    4    2
 0.5453708953383126    4    4    4    4
 0.009770974882974622    5    1    5    1
 0.009269761552478297    5    2    5    2
 0.01662073010274449    5    3    5    1
 0.1049701474299303    5    3    5    3
 -0.01128142281405522    5    4    5    2
 0.05087367798540698    5    4    5    4
 0.6879790991819605    5    5    1    1
 0.6880230406586395    5    5    2    2
 -0.00151388547507708    5    5    3    1
 0.6171757554628704    5    5    3    3
 0.00772867812572911    5    5    4    2
 0.5100096682483707    5    5    4    4
 0.5880333086470348    5    5    5    5
 0.009770974882974624    6    1    6    1
 0.009269761552478302    6    2    6    2
 0.0166207301027445    6    3    6    1
 0.1049701474299303    6    3    6    3
 -0.01128142281405522    6    4    6    2
 0.05087367798540699    6    4    6    4
 0.02399055495736291    6    5    6    5
 0.6879790991819608    6    6    1    1
 0.6880230406586396    6    6    2    2
 -0.001513885475077081    6    6    3    1
 0.6171757554628706    6    6    3    3
 0.007728678125729107    6    6    4    2
 0.510009668248371    6    6    4    4
 0.5400521987323094    6    6    5    5
 0.5880333086470354    6    6    6    6
 -0.08358407750287093    7    1    1    1
 -0.08364308789204283    7    1    2    2
 0.006565206510447357    7    1    3    1
 -0.02549703896179405    7    1    3    3
 -0.01521576171553102    7    1    4    2
 0.004206978893553525    7    1    4    4
 -0.00894814097826287    7    1    5    5
 -0.008948140978262874    7    1    6    6
 0.01426986282763672    7    1    7    1
 -0.06855659345356616    7    2    2    1
 -1.848719866971195e-12    7    2    2    2
 0.007024222998447785    7    2    3    2
 -0.01478375452012273    7    2    4    1
 -0.0007778777746981695    7    2    4    3
 0.01331565198804719    7    2    7    2
 -0.06550121646318476    7    3    1    1
 -0.06555911997087237    7    3    2    2
 -0.007235154089188541    7    3    3    1
 -0.1088646551953435    7    3    3    3
 -0.004775180513357482    7    3    4    2
 0.001135194731309836    7    3    4    4
 -0.04695975965789841    7    3    5    5
 -0.04695975965789843    7    3    6    6
 0.01236104591110757    7    3    7    1
 0.05164607770549189    7    3    7    3
 4.210393603318492e-12    7    4    1    1
 -0.2521981419439313    7    4    2    1
 -4.208819141864268e-12    7    4    2    2
 0.01387800268925773    7    4    3    2
 0.002323559565355427    7    4    4    1
 0.09308563583870667    7    4    4    3
 -0.01487213164452319    7    4    7    2
 0.2235584888602651    7    4    7    4
 0.004861044031656147    7    5    5    1
 0.01384511582678489    7    5    5    3
 0.02806054367652973    7    5    7    5
 0.004861044031656148    7    6    6    1
 0.01384511582678489    7    6    6    3
 0.02806054367652975    7    6    7    6
 0.6854056843138092    7    7    1    1
 0.6853423268081702    7    7    2    2
 -0.008976129056388393    7    7    3    1
 0.5424367785711781    7    7    3    3
 0.003724264940384066    7    7    4    2
 0.5570968878592948    7    7    4    4
 0.517765131233086    7    7    5    5
 0.5177651312330863    7    7    6    6
 0.002700028103112897    7    7    7    1
 -0.01617485682672801    7    7    7    3
 0.5849179963615131    7    7    7    7
 -0.009993573399972656    8    1    5    2
 0.01190136219243258    8    1    5    4
 0.005295856937011791    8    1    6    2
 -0.00630684430924942    8    1    6    4
 0.0138173617685866    8    1    8    1
 -0.01050399376189901    8    2    5    1
 -0.01665400910073389    8    2    5    3
 0.005566342088449931    8    2    6    1
 0.00882539669198011    8    2    6    3
 -0.005494404649951469    8    2    7    5
 0.002911629285704246    8    2    7    6
 0.0144985042960206    8    2    8    2
 -0.01010557735005226    8    3    5    2
 0.03792952192610478    8    3    5    4
 0.005355210770947054    8    3    6    2
 -0.02009984955035727    8    3    6    4
 0.01344110584320159    8    3    8    1
 0.04424917100755776    8    3    8    3
 0.0137917440699752    8    4    5    1
 0.06547587989056622    8    4    5    3
 -0.00730860730023449    8    4    6    1
 -0.03469738789594067    8    4    6    3
 0.03307304162598207    8    4    7    5
 -0.01752627312703943    8    4    7    6
 -0.01853260557412482    8    4    8    2
 0.08236493094061505    8    4    8    4
 4.061210399821779e-12    8    5    1    1
 -0.243301751739354    8    5    2    1
 -4.06098601740592e-12    8    5    2    2
 0.007811303438428068    8    5    3    2
 -0.002426540529832363    8    5    4    1
 0.08543734659971813    8    5    4    3
 -0.003341849451951998    8    5    7    2
 0.139098353552556    8    5    7    4
 0.1506780755168246    8    5    8    5
 -2.15243480929995e-12    8    6    1    1
 0.128931986404333    8    6    2    1
 2.151734472294765e-12    8    6    2    2
 -0.004139414786468325    8    6    3    2
 0.001285887538274159    8    6    4    1
 -0.04527549321559354    8    6    4    3
 0.001770933768557453    8    6    7    2
 -0.073711869729224    8    6    7    4
 -0.06979030056483031    8    6    8    5
 0.05596365141986375    8    6    8    6
 -0.006208780751319113    8    7    5    2
 0.03457658419118538    8    7    5    4
 0.003290195938556729    8    7    6    2
 -0.01832303980952022    8    7    6    4
 0.008608741470998722    8    7    8    1
 0.02499685655616157    8    7    8    3
 0.03816957457881433    8    7    8    7
 0.7276833321892705    8    8    1    1
 0.7277125780396619    8    8    2    2
 -0.005948816217118244    8    8    3    1
 0.5960361351608499    8    8    3    3
 0.007743252746405971    8    8    4    2
 0.5358793067768516    8    8    4    4
 0.5770472993574721    8    8    5    5
 -0.01893073743251782    8    8    6    5
 0.5513558511312806    8    8    6    6
 -0.005357766510219394    8    8    7    1
 -0.02922830918125506    8    8    7    3
 0.5405366748405794    8    8    7    7
 0.6047495644207161    8    8    8    8
 0.005295856937011787    9    1    5    2
 -0.006306844309249418    9    1    5    4
 0.009993573399972656    9    1    6    2
 -0.01190136219243258    9    1    6    4
 0.0138173617685866    9    1    9    1
 0.005566342088449927    9    2    5    1
 0.00882539669198011    9    2    5    3
 0.01050399376189901    9    2    6    1
 0.0166540091007339    9    2    6    3
 0.002911629285704244    9    2    7    5
 0.00549440464995147    9    2    7    6
 0.0144985042960206    9    2    9    2
 0.005355210770947052    9    3    5    2
 -0.02009984955035727    9    3    5    4
 0.01010557735005227    9    3    6    2
 -0.03792952192610478    9    3    6    4
 0.01344110584320159    9    3    9    1
 0.04424917100755776    9    3    9    3
 -0.007308607300234487    9    4    5    1
 -0.03469738789594067    9    4    5    3
 -0.01379174406997519    9    4    6    1
 -0.0654758798905662    9    4    6    3
 -0.01752627312703943    9    4    7    5
 -0.03307304162598207    9    4    7    6
 -0.01853260557412482    9    4    9    2
 0.08236493094061503    9    4    9    4
 -2.152198446450084e-12    9    5    1    1
 0.128931986404333    9    5    2    1
 2.15197055054156e-12    9    5    2    2
 -0.004139414786468313    9    5    3    2
 0.001285887538274148    9    5    4    1
 -0.0452754932155935    9    5    4    3
 0.001770933768557453    9    5    7    2
 -0.07371186972922394    9    5    7    4
 -0.06979030056483035    9    5    8    5
 0.01800377396241363    9    5    8    6
 0.0559636514198637    9    5    9    5
 -4.061808913302309e-12    9    6    1    1
 0.2433017517393541    9    6    2    1
 4.060415415355068e-12    9    6    2    2
 -0.00781130343842806    9    6    3    2
 0.002426540529832343    9    6    4    1
 -0.08543734659971812    9    6    4    3
 0.003341849451952008    9    6    7    2
 -0.139098353552556    9    6    7    4
 -0.1127181980593746    9    6    8    5
 0.06979030056483038    9    6    8    6
 0.06979030056483025    9    6    9    5
 0.1506780755168246    9    6    9    6
 0.00329019593855673    9    7    5    2
 -0.01832303980952022    9    7    5    4
 0.006208780751319114    9    7    6    2
 -0.03457658419118538    9    7    6    4
 0.008608741470998722    9    7    9    1
 0.02499685655616158    9    7    9    3
 0.03816957457881433    9    7    9    7
 -0.01893073743251781    9    8    5    5
 -0.01284572411309591    9    8    6    5
 0.01893073743251777    9    8    6    6
 0.0250683630660336    9    8    9    8
 0.7276833321892705    9    9    1    1
 0.7277125780396619    9    9    2    2
 -0.005948816217118243    9    9    3    1
 0.59603613516085    9    9    3    3
 0.007743252746405973    9    9    4    2
 0.5358793067768516    9    9    4    4
 0.5513558511312806    9    9    5    5
 0.01893073743251757    9    9    6    5
 0.5770472993574725    9    9    6    6
 -0.005357766510219378    9    9    7    1
 -0.02922830918125509    9    9    7    3
 0.5405366748405793    9    9    7    7
 0.5546128382886495    9    9    8    8
 0.6047495644207164    9    9    9    9
 -3.593272814711446e-12   10    1    1    1
 0.1496126043669853   10    1    2    1
 1.403124307280262e-12   10    1    2    2
 -0.02753898357225316   10    1    3    2
 0.01482120306052018   10    1    4    1
 -0.008134532441245413   10    1    4    3
 0.00503091400364813   10    1    7    2
 -0.02624511337849724   10    1    7    4
 -0.00875763125541084   10    1    8    5
 0.004640898743575115   10    1    8    6
 0.004640898743575112   10    1    9    5
 0.00875763125541084   10    1    9    6
 0.03593526739621399   10    1   10    1
 0.131266581854898   10    2    1    1
 1.250115516746725e-12   10    2    2    1
 0.131050491587326   10    2    2    2
 -0.02801217340663284   10    2    3    1
 -0.02213387659981858   10    2    3    3
 0.01429094096865754   10    2    4    2
 0.0162235195158664   10    2    4    4
 -0.006439462220086921   10    2    5    5
 -0.006439462220086923   10    2    6    6
 0.006121197116250083   10    2    7    1
 0.01678715243297153   10    2    7    3
 0.0121185370236747   10    2    7    7
 0.0003361779982834461   10    2    8    8
 0.0003361779982834466   10    2    9    9
 0.03704484246598882   10    2   10    2
 3.777771649175169e-12   10    3    1    1
 -0.226332877183519   10    3    2    1
 -3.777929981655867e-12   10    3    2    2
 0.004995123617625752   10    3    3    2
 -0.01144831357445143   10    3    4    1
 0.05920441514899706   10    3    4    3
 0.01092341405884505   10    3    7    2
 0.05680773862047778   10    3    7    4
 0.09025799590649748   10    3    8    5
 -0.04783008185475623   10    3    8    6
 -0.04783008185475621   10    3    9    5
 -0.0902579959064975   10    3    9    6
 0.005962232622227405   10    3   10    1
 0.1066529235384501   10    3   10    3
 0.04917036956781863   10    4    1    1
 0.04924693669100588   10    4    2    2
 0.002876419332622995   10    4    3    1
 0.0735318763981513   10    4    3    3
 0.007462147318434238   10    4    4    2
 -0.01981441502460446   10    4    4    4
 0.04167203528547786   10    4    5    5
 0.04167203528547788   10    4    6    6
 -0.01222982301532972   10    4    7    1
 -0.02972206255748017   10    4    7    3
 -0.02745131919604361   10    4    7    7
 0.02848138143235637   10    4    8    8
 0.02848138143235637   10    4    9    9
 -0.01373219287087294   10    4   10    2
 0.0479110755727664   10    4   10    4
 -0.008593671482768211   10    5    5    2
 0.02383572756838223   10    5    5    4
 0.008737529958770286   10    5    8    1
 0.03005602833256048   10    5    8    3
 0.00390177112733385   10    5    8    7
 -0.00463024653870342   10    5    9    1
 -0.01592747856782128   10    5    9    3
 -0.002067650965707602   10    5    9    7
 0.03533445793527206   10    5   10    5
 -0.008593671482768213   10    6    6    2
 0.02383572756838225   10    6    6    4
 -0.004630246538703421   10    6    8    1
 -0.01592747856782129   10    6    8    3
 -0.002067650965707607   10    6    8    7
 -0.008737529958770286   10    6    9    1
 -0.03005602833256048   10    6    9    3
 -0.00390177112733385   10    6    9    7
 0.03533445793527208   10    6   10    6
 -3.229693591830663e-12   10    7    1    1
 0.1933359536734652   10    7    2    1
 3.224474710134505e-12   10    7    2    2
 -0.006826296324286061   10    7    3    2
 0.001708300603953597   10    7    4    1
 -0.05481457807965461   10    7    4    3
 0.003404913988231198   10    7    7    2
 -0.1243795456013845   10    7    7    4
 -0.08140843930499743   10    7    8    5
 0.0431404694566864   10    7    8    6
 0.04314046945668638   10    7    9    5
 0.08140843930499744   10    7    9    6
 0.009542977897305646   10    7   10    1
 -0.0588860809162388   10    7   10    3
 0.09181505172479534   10    7   10    7
 0.009823397235029544   10    8    5    1
 0.05445554207698892   10    8    5    3
 -0.005205676119044267   10    8    6    1
 -0.02885742153732001   10    8    6    3
 -0.0003894682503260781   10    8    7    5
 0.0002063894517691626   10    8    7    6
 -0.01260878052881994   10    8    8    2
 0.03605239402990019   10    8    8    4
 0.0471636102712458   10    8   10    8
 -0.005205676119044264   10    9    5    1
 -0.02885742153732   10    9    5    3
 -0.009823397235029544   10    9    6    1
 -0.05445554207698892   10    9    6    3
 0.000206389451769158   10    9    7    5
 0.0003894682503260778   10    9    7    6
 -0.01260878052881994   10    9    9    2
 0.0360523940299002   10    9    9    4
 0.04716361027124581   10    9   10    9
 0.895803173576866   10   10    1    1
 0.8958777131362101   10   10    2    2
 -0.00551636828787865   10   10    3    1
 0.7241338005117457   10   10    3    3
 0.02094711835376007   10   10    4    2
 0.5594683590134948   10   10    4    4
 0.6199586921604177   10   10    5    5
 0.619958692160418   10   10    6    6
 -0.02288005252328558   10   10    7    1
 -0.08753998592074458   10   10    7    3
 0.5940888591771087   10   10    7    7
 0.6213509929541187   10   10    8    8
 0.6213509929541187   10   10    9    9
 -0.01353478089465127   10   10   10    2
 0.04564832573426853   10   10   10    4
 0.7600248802188235   10   10   10   10
 -27.54915488556388    1    1  0  0
 -27.54834496478074    2    2  0  0
 0.4635675509346006    3    1  0  0
 3.869705354201668e-12    3    2  0  0
 -9.53314264668137    3    3  0  0
 4.168523942411829e-12    4    1  0  0
 -0.4988436049006487    4    2  0  0
 -7.675382504934498    4    4  0  0
 -8.054499426069889    5    5  0  0
 -8.05449942606989    6    6  0  0
 0.2627968093192932    7    1  0  0
 2.209592471360031e-12    7    2  0  0
 0.7070941310603549    7    3  0  0
 -7.776486527983714    7    7  0  0
 -7.832574599666742    8    8  0  0
 -7.832574599666743    9    9  0  0
 1.936721418836551e-12   10    1  0  0
 -0.2319547199704732   10    2  0  0
 -0.424260984325537   10    4  0  0
 -8.310998020577172   10   10  0  0
 23.57243939552727  0  0  0  0
