 &FCI NORB=  10,NELEC=10,MS2=0,
  ORBSYM=1,1,1,1,1,1,1,1,1,1,
  ISYM=1,
 &END
 0.3195491171146151    1    1    1    1
 -0.04350850995193402    2    1    1    1
 0.1257890078071401    2    1    2    1
 0.2541555325383544    2    2    1    1
 0.04659833319812961    2    2    2    1
 0.3095394398292572    2    2    2    2
 -0.04221955537915401    3    1    1    1
 -0.01444016269000813    3    1    2    1
 0.0178412469517088    3    1    2    2
 0.09276557173870241    3    1    3    1
 -0.0225855615134339    3    2    1    1
 0.06534443571439685    3    2    2    1
 0.03155717304152512    3    2    2    2
 -0.009134752515517654    3    2    3    1
 0.08034080797505351    3    2    3    2
 0.268838540903856    3    3    1    1
 -0.01807913741350652    3    3    2    1
 0.2393568743869272    3    3    2    2
 -0.0162988984170976    3    3    3    1
 -0.01797410090620986    3    3    3    2
 0.2842528544650859    3    3    3    3
 -0.02247059656775331    4    1    1    1
 0.03631751022621449    4    1    2    1
 0.007117686860155042    4    1    2    2
 0.01235117487302472    4    1    3    1
 -0.0298733943744285    4    1    3    2
 0.003044797714450117    4    1    3    3
 0.06479028721162726    4    1    4    1
 0.0535676950105471    4    2    1    1
 0.00493359679175172    4    2    2    1
 0.01420986706146468    4    2    2    2
 -0.05538126255789753    4    2    3    1
 -0.01532490387912126    4    2    3    2
 -0.00498760089997889    4    2    3    3
 0.007567587219197284    4    2    4    1
 0.08279564151853128    4    2    4    2
 0.02569718740463297    4    3    1    1
 -0.08238044004543202    4    3    2    1
 -0.03226175195676557    4    3    2    2
 0.01564177032249031    4    3    3    1
 -0.06584887031145246    4    3    3    2
 0.0185272980085953    4    3    3    3
 0.004228831254266938    4    3    4    1
 0.004006351512637171    4    3    4    2
 0.09708644233280174    4    3    4    3
 0.2487987022016506    4    4    1    1
 0.01637608473444738    4    4    2    1
 0.2643233824382452    4    4    2    2
 0.001429003635948193    4    4    3    1
 0.01059237299755227    4    4    3    2
 0.2493808371088227    4    4    3    3
 0.002201163663892784    4    4    4    1
 0.002209680782798167    4    4    4    2
 -0.01487382114253386    4    4    4    3
 0.2720833513355042    4    4    4    4
 0.02088846995146993    5    1    1    1
 -0.01260598103353568    5    1    2    1
 0.03525361642090322    5    1    2    2
 0.02545465698159897    5    1    3    1
 0.001822125627022658    5    1    3    2
 -0.02735590293464862    5    1    3    3
 -0.01319701377598832    5    1    4    1
 0.0282345694395826    5    1    4    2
 0.001488842631700093    5    1    4    3
 0.005866058763947631    5    1    4    4
 0.0626544604662319    5    1    5    1
 -0.01377273948949469    5    2    1    1
 0.0448669192766724    5    2    2    1
 0.02102060595600748    5    2    2    2
 0.003496464517348907    5    2    3    1
 -0.004263735252531993    5    2    3    2
 -0.002777124052896249    5    2    3    3
 0.04526699640762255    5    2    4    1
 0.01729367010063736    5    2    4    2
 0.012880817766347    5    2    4    3
 0.00234081676735251    5    2    4    4
 -0.002184033749906256    5    2    5    1
 0.06041663483068102    5    2    5    2
 0.05209303009446949    5    3    1    1
 0.006280947517819093    5    3    2    1
 0.003350963684137043    5    3    2    2
 -0.06912511634094286    5    3    3    1
 -0.001385079916856689    5    3    3    2
 0.0213044571721547    5    3    3    3
 -0.005432510725054719    5    3    4    1
 0.05368991348168307    5    3    4    2
 -0.01126935588064385    5    3    4    3
 -0.01231390785873277    5    3    4    4
 -0.009048399919709394    5    3    5    1
 -0.002326934734595631    5    3    5    2
 0.08001409571659461    5    3    5    3
 -0.03211152332141325    5    4    1    1
 0.08791817760687688    5    4    2    1
 0.03742728963024034    5    4    2    2
 -0.006908385319496823    5    4    3    1
 0.06773742939865365    5    4    3    2
 -0.01991094626467399    5    4    3    3
 0.002596398397193236    5    4    4    1
 -0.006163767675942252    5    4    4    2
 -0.07910068177792379    5    4    4    3
 0.01599808515600618    5    4    4    4
 -0.00121381878160407    5    4    5    1
 0.01206486798201174    5    4    5    2
 0.0003306029436163475    5    4    5    3
 0.0949603729156607    5    4    5    4
 0.2784719091085337    5    5    1    1
 -0.004197038544519163    5    5    2    1
 0.2567543825267403    5    5    2    2
 -0.0244558572964101    5    5    3    1
 -0.006092790885228017    5    5    3    2
 0.2635524636630963    5    5    3    3
 -0.001955139828664524    5    5    4    1
 0.02543808060050557    5    5    4    2
 0.002129498107095874    5    5    4    3
 0.2548270723185029    5    5    4    4
 0.002774701644430512    5    5    5    1
 -0.0002185192614694992    5    5    5    2
 0.02965826593059137    5    5    5    3
 -0.007106112815022665    5    5    5    4
 0.2800886512322746    5    5    5    5
 -0.0009108395167287787    6    1    1    1
 -0.007714900266257312    6    1    2    1
 -0.0002702132867651404    6    1    2    2
 0.01495463735500237    6    1    3    1
 -0.0276233410160564    6    1    3    2
 -0.0009032749772116154    6    1    3    3
 0.0212669413958426    6    1    4    1
 0.001793912399016526    6    1    4    2
 -0.01700065447730129    6    1    4    3
 0.0007068944987173613    6    1    4    4
 0.007577541470342305    6    1    5    1
 -0.0180389110930477    6    1    5    2
 0.001804266205900989    6    1    5    3
 -0.005058910041496441    6    1    5    4
 0.001813341216982721    6    1    5    5
 0.05341369368679207    6    1    6    1
 -0.008296524551874386    6    2    1    1
 -0.001184731620623025    6    2    2    1
 -0.03820862826590132    6    2    2    2
 -0.03374962912316153    6    2    3    1
 -0.006768897796210743    6    2    3    2
 0.004656054167375745    6    2    3    3
 0.001721687689326862    6    2    4    1
 0.001415958672986255    6    2    4    2
 -0.002563127241013199    6    2    4    3
 0.00842509927653174    6    2    4    4
 -0.03235221780950624    6    2    5    1
 -0.008916911042789284    6    2    5    2
 -0.002597949466377583    6    2    5    3
 -0.002282559819838705    6    2    5    4
 -0.002864783013236428    6    2    5    5
 -0.001588581792317101    6    2    6    1
 0.05023316800099105    6    2    6    2
 0.02325395622505156    6    3    1    1
 -0.04575950275854376    6    3    2    1
 -0.01072918624871128    6    3    2    2
 -0.003315163789749858    6    3    3    1
 0.004718148169606326    6    3    3    2
 0.003126335610508847    6    3    3    3
 -0.04417453163268534    6    3    4    1
 -0.005585706885926829    6    3    4    2
 0.009916741059605327    6    3    4    3
 -0.003013189058217953    6    3    4    4
 0.01047519440394224    6    3    5    1
 -0.03515749061424433    6    3    5    2
 0.004462627375298598    6    3    5    3
 0.004369661209784517    6    3    5    4
 0.0001826560947386664    6    3    5    5
 -0.007247189349845959    6    3    6    1
 -0.002184757611190142    6    3    6    2
 0.0607418892127287    6    3    6    3
 0.05052451957299722    6    4    1    1
 0.003173072684042385    6    4    2    1
 0.00869858289512658    6    4    2    2
 -0.05639208809683133    6    4    3    1
 -0.006313319921657984    6    4    3    2
 0.01904926388766346    6    4    3    3
 -0.001331433147550732    6    4    4    1
 0.05118173191292353    6    4    4    2
 -0.003330055272327354    6    4    4    3
 0.004161733749373377    6    4    4    4
 -0.00143187323992214    6    4    5    1
 0.002074310502114496    6    4    5    2
 0.05366972426003561    6    4    5    3
 -0.004705341578232118    6    4    5    4
 0.0141050724238489    6    4    5    5
 -0.0008125366859364326    6    4    6    1
 0.008346254649603396    6    4    6    2
 0.0004595495227118808    6    4    6    3
 0.06415278399809599    6    4    6    4
 0.0216068183993571    6    5    1    1
 -0.07268507978698857    6    5    2    1
 -0.02776744124880794    6    5    2    2
 0.01492769962641462    6    5    3    1
 -0.0520109213263469    6    5    3    2
 0.01205704122988584    6    5    3    3
 -0.004119075636655235    6    5    4    1
 9.261140656469449e-05    6    5    4    2
 0.06621690810521486    6    5    4    3
 -0.01129235504638696    6    5    4    4
 0.005617838065774067    6    5    5    1
 -0.007045286054304845    6    5    5    2
 -0.009027284754534973    6    5    5    3
 -0.06196712029614609    6    5    5    4
 0.001688044380064868    6    5    5    5
 0.0004258118646132767    6    5    6    1
 -0.001119155287025523    6    5    6    2
 0.01441610640921091    6    5    6    3
 -0.004527046724052316    6    5    6    4
 0.0773532036213842    6    5    6    5
 0.2808730311071029    6    6    1    1
 -0.00438887181925854    6    6    2    1
 0.2592957486885579    6    6    2    2
 -0.02405771831358535    6    6    3    1
 -0.005981438003071451    6    6    3    2
 0.2653870245337119    6    6    3    3
 -0.002211692245759275    6    6    4    1
 0.02529478855524885    6    6    4    2
 0.002483174428706509    6    6    4    3
 0.2561183477644995    6    6    4    4
 0.003030105900995074    6    6    5    1
 -0.0001481415044672172    6    6    5    2
 0.02913858210255457    6    6    5    3
 -0.006880137957353986    6    6    5    4
 0.2751210539195678    6    6    5    5
 0.001133600888161565    6    6    6    1
 -0.003102219838284374    6    6    6    2
 0.001489018007656273    6    6    6    3
 0.0203152299288007    6    6    6    4
 0.00192920070432788    6    6    6    5
 0.2839355887407121    6    6    6    6
 0.001405394253412127    7    1    1    1
 -0.0009707494626940064    7    1    2    1
 -0.007535941629788155    7    1    2    2
 -0.01257059761580341    7    1    3    1
 0.002610542072051781    7    1    3    2
 -0.01907191196519897    7    1    3    3
 -0.007147392190789225    7    1    4    1
 0.02118945834484991    7    1    4    2
 0.001717488810433786    7    1    4    3
 0.01339754185781808    7    1    4    4
 0.01482669390168542    7    1    5    1
 0.0009541216080930597    7    1    5    2
 -0.01485270515168878    7    1    5    3
 -5.59326401499932e-05    7    1    5    4
 -0.002303895627019603    7    1    5    5
 -0.009541176790945523    7    1    6    1
 0.02371542195944581    7    1    6    2
 -0.0002238006415042418    7    1    6    3
 0.002884042059629194    7    1    6    4
 0.0005990229749393669    7    1    6    5
 -0.002956332446156573    7    1    6    6
 0.03801322130520887    7    1    7    1
 -0.0003442662644172705    7    2    1    1
 -0.008778722992077211    7    2    2    1
 -0.009969565445492648    7    2    2    2
 0.00267535789744657    7    2    3    1
 -0.02898930247715167    7    2    3    2
 -0.001225377426403976    7    2    3    3
 0.02219629793036735    7    2    4    1
 0.00982966151297502    7    2    4    2
 -0.0003460463936196009    7    2    4    3
 0.004294491976808224    7    2    4    4
 0.0008564203919796527    7    2    5    1
 -0.001981632126242771    7    2    5    2
 -0.001513654513367995    7    2    5    3
 0.009060767570541316    7    2    5    4
 -0.0001756902061979333    7    2    5    5
 0.0319718373554977    7    2    6    1
 0.01257721805626977    7    2    6    2
 0.01353911555608522    7    2    6    3
 0.000359388959861619    7    2    6    4
 0.005654467777266812    7    2    6    5
 -0.0006615508232624993    7    2    6    6
 0.003467707306368173    7    2    7    1
 0.04814162723386644    7    2    7    2
 -0.01949686147820041    7    3    1    1
 0.004164570399585109    7    3    2    1
 -0.03840077857298058    7    3    2    2
 -0.0255982494746665    7    3    3    1
 -0.00186703231974199    7    3    3    2
 0.002097811219339291    7    3    3    3
 0.003466793389087109    7    3    4    1
 -0.007886416842924241    7    3    4    2
 -0.002375078416432886    7    3    4    3
 -0.007264445058690353    7    3    4    4
 -0.03543275298688116    7    3    5    1
 -0.003683044151981035    7    3    5    2
 0.004805501256578634    7    3    5    3
 -0.001592390305193907    7    3    5    4
 0.006152424819786098    7    3    5    5
 -0.004126680493630348    7    3    6    1
 0.03225552888774366    7    3    6    2
 -0.00727518001120471    7    3    6    3
 -0.01556300213549105    7    3    6    4
 -0.001918014403441141    7    3    6    5
 -0.0002863244159524124    7    3    6    6
 0.00627688635180324    7    3    7    1
 0.003386371860114983    7    3    7    2
 0.04795466024885411    7    3    7    3
 -0.01130552844949954    7    4    1    1
 0.03745581056417543    7    4    2    1
 0.01664282229354263    7    4    2    2
 0.00303079571594441    7    4    3    1
 -0.008032167559284847    7    4    3    2
 -0.001358304310373013    7    4    3    3
 0.04104776709790119    7    4    4    1
 0.01402221912451557    7    4    4    2
 0.0009635386605658545    7    4    4    3
 0.004267935567926836    7    4    4    4
 -0.002292286276042109    7    4    5    1
 0.04053095439244912    7    4    5    2
 -0.001279892462178639    7    4    5    3
 0.001459489996078358    7    4    5    4
 -0.0001542401011362382    7    4    5    5
 0.0006033433570176308    7    4    6    1
 -0.003518941377997786    7    4    6    2
 -0.04252595553789636    7    4    6    3
 0.006597673996721044    7    4    6    4
 0.01812579450927603    7    4    6    5
 0.0001288303218271065    7    4    6    6
 0.0005840797859063343    7    4    7    1
 -0.003677581961524809    7    4    7    2
 -0.003640351548184569    7    4    7    3
 0.0649641944729958    7    4    7    4
 0.05235577312314383    7    5    1    1
 0.002798960617657937    7    5    2    1
 0.009599238797527467    7    5    2    2
 -0.05752292980900063    7    5    3    1
 -0.006088615814241159    7    5    3    2
 0.0203378887141873    7    5    3    3
 -0.002027953190669937    7    5    4    1
 0.05231095715394712    7    5    4    2
 -0.003309733010522447    7    5    4    3
 0.00592512101148922    7    5    4    4
 -0.001026906661683901    7    5    5    1
 0.001936019695927629    7    5    5    2
 0.0550632889593365    7    5    5    3
 -0.004446160512210763    7    5    5    4
 0.02139006762265016    7    5    5    5
 -0.0009373151466410784    7    5    6    1
 0.008253544682186465    7    5    6    2
 0.0007419673664297022    7    5    6    3
 0.0602038963382119    7    5    6    4
 -0.004647683323958172    7    5    6    5
 0.01710828787143531    7    5    6    6
 0.003552449627081334    7    5    7    1
 0.0009247813345703015    7    5    7    2
 -0.01095389620133744    7    5    7    3
 0.005819370842231976    7    5    7    4
 0.06471433912592792    7    5    7    5
 -0.03272741488349597    7    6    1    1
 0.09047353264053956    7    6    2    1
 0.03804361136087042    7    6    2    2
 -0.007988444169693951    7    6    3    1
 0.06937738379395639    7    6    3    2
 -0.02028230739188186    7    6    3    3
 0.002607059508278656    7    6    4    1
 -0.005904660280777388    7    6    4    2
 -0.08059829274575331    7    6    4    3
 0.01544084665205135    7    6    4    4
 -0.001553712227145344    7    6    5    1
 0.01206277052997972    7    6    5    2
 0.00101132216481227    7    6    5    3
 0.09068742167777277    7    6    5    4
 -0.006999601758759508    7    6    5    5
 -0.005652890975522276    7    6    6    1
 -0.002576430693068188    7    6    6    2
 -0.002407364610865409    7    6    6    3
 -0.003711610243374526    7    6    6    4
 -0.06363525267776825    7    6    6    5
 -0.006961925021351453    7    6    6    6
 0.0001488964810205089    7    6    7    1
 0.002829719564744604    7    6    7    2
 -0.001272172771217878    7    6    7    3
 0.002970977268956614    7    6    7    4
 -0.004017684186315883    7    6    7    5
 0.09720228722737655    7    6    7    6
 0.2572154076570085    7    7    1    1
 0.01414120791887381    7    7    2    1
 0.2711279314110892    7    7    2    2
 0.001363547913220924    7    7    3    1
 0.009526100980443229    7    7    3    2
 0.2562108488238241    7    7    3    3
 0.001493446800893755    7    7    4    1
 0.003702503209629251    7    7    4    2
 -0.01247607994015551    7    7    4    3
 0.2724801096187255    7    7    4    4
 0.007058931662362407    7    7    5    1
 0.00293045017970282    7    7    5    2
 -0.005710462031702921    7    7    5    3
 0.01336915389962248    7    7    5    4
 0.2613022349364758    7    7    5    5
 0.0005754414105218677    7    7    6    1
 0.001780564990428626    7    7    6    2
 -0.002267552042858136    7    7    6    3
 0.006803489256450718    7    7    6    4
 -0.009912447792745735    7    7    6    5
 0.2652605294154989    7    7    6    6
 0.007903589840773228    7    7    7    1
 0.001909392750075905    7    7    7    2
 -0.01037921749990374    7    7    7    3
 0.004175530470066722    7    7    7    4
 0.007261743790000472    7    7    7    5
 0.01383208119293306    7    7    7    6
 0.2846541898144905    7    7    7    7
 0.0006921820229550191    8    1    1    1
 -0.0002797785596547387    8    1    2    1
 -0.0008595594573471133    8    1    2    2
 -0.0005281371566999448    8    1    3    1
 -0.004826626251629182    8    1    3    2
 0.008638357921860407    8    1    3    3
 0.007602006289956877    8    1    4    1
 -0.001841574567649228    8    1    4    2
 0.01669424997529993    8    1    4    3
 -0.001318943249511046    8    1    4    4
 -0.009621767195252932    8    1    5    1
 0.01792474815391487    8    1    5    2
 0.001205364474648395    8    1    5    3
 0.01491083561787265    8    1    5    4
 -0.002969727423759562    8    1    5    5
 -0.0143600767008328    8    1    6    1
 -0.001122345402528597    8    1    6    2
 0.02098992044854082    8    1    6    3
 0.001397988648117569    8    1    6    4
 0.005239780689634075    8    1    6    5
 -0.001183951715014429    8    1    6    6
 -0.006369728147890777    8    1    7    1
 0.01696759240388608    8    1    7    2
 -0.002667145033922219    8    1    7    3
 -0.003021764764194994    8    1    7    4
 0.0007088719302007556    8    1    7    5
 0.009526617694681714    8    1    7    6
 -0.0007396643976375155    8    1    7    7
 0.03659844288621123    8    1    8    1
 -0.000718197574472661    8    2    1    1
 -0.0007465585936070177    8    2    2    1
 -0.003407577636952825    8    2    2    2
 -0.004436656911755096    8    2    3    1
 -0.0009512731459821741    8    2    3    2
 -0.02260013268142116    8    2    3    3
 -0.002039857427542105    8    2    4    1
 0.02244444517882964    8    2    4    2
 0.001872782971307709    8    2    4    3
 0.001096332279666462    8    2    4    4
 0.02101314518065242    8    2    5    1
 0.004475187266656489    8    2    5    2
 -0.004614004378545323    8    2    5    3
 0.002440724362704053    8    2    5    4
 0.007274501578596558    8    2    5    5
 -0.001906439738369804    8    2    6    1
 0.004831931758199753    8    2    6    2
 0.001426388639859116    8    2    6    3
 -0.01302978214105157    8    2    6    4
 0.001695754966558357    8    2    6    5
 0.002016526871832272    8    2    6    6
 0.02320650985702969    8    2    7    1
 0.007907737199265626    8    2    7    2
 0.01316688644647394    8    2    7    3
 -0.001253228394084763    8    2    7    4
 -0.008714190988346894    8    2    7    5
 0.001627391655618934    8    2    7    6
 -0.001386233175341067    8    2    7    7
 -0.003714279235632468    8    2    8    1
 0.03295171734177368    8    2    8    2
 0.0002746679496909138    8    3    1    1
 -0.00596501502174167    8    3    2    1
 -0.0002646809974328274    8    3    2    2
 0.01125765245389774    8    3    3    1
 -0.02571083831138807    8    3    3    2
 0.003120526351278019    8    3    3    3
 0.02181420220713763    8    3    4    1
 0.002360644380095435    8    3    4    2
 -0.004419954992541317    8    3    4    3
 0.002266494557539229    8    3    4    4
 0.002530941762440364    8    3    5    1
 -0.005334367472195088    8    3    5    2
 -0.0005218991906896166    8    3    5    3
 -0.004507997580384778    8    3    5    4
 -0.000261802638093586    8    3    5    5
 0.03589460300481403    8    3    6    1
 0.0007133167997916802    8    3    6    2
 -0.004896704683507423    8    3    6    3
 0.002938215715683915    8    3    6    4
 -0.02382498180109661    8    3    6    5
 -0.0003454282779887154    8    3    6    6
 -0.006388511880877901    8    3    7    1
 0.0275554252935096    8    3    7    2
 -0.006142375191714091    8    3    7    3
 -0.02377017735660212    8    3    7    4
 0.002688520228067636    8    3    7    5
 -0.005360021630203536    8    3    7    6
 0.002084204408293315    8    3    7    7
 -0.002145902136210735    8    3    8    1
 -0.00391103797593957    8    3    8    2
 0.05615175821611542    8    3    8    3
 0.02003696936436262    8    4    1    1
 -0.003245253870898752    8    4    2    1
 0.04001668100262568    8    4    2    2
 0.02587502522741434    8    4    3    1
 0.002321860962295772    8    4    3    2
 -0.001153572335051306    8    4    3    3
 -0.003068419082786023    8    4    4    1
 0.00812426738873907    8    4    4    2
 0.002259906219558399    8    4    4    3
 0.008953943963322442    8    4    4    4
 0.03587782980075038    8    4    5    1
 0.004605185499852791    8    4    5    2
 -0.004613297577003478    8    4    5    3
 0.001772231875938059    8    4    5    4
 -8.520615748056418e-05    8    4    5    5
 0.003935759852135603    8    4    6    1
 -0.03311616551535359    8    4    6    2
 0.005962191300550724    8    4    6    3
 0.01129015291598456    8    4    6    4
 0.002236137556773049    8    4    6    5
 -0.003132319730295676    8    4    6    6
 -0.006081807028741243    8    4    7    1
 -0.003749262166998822    8    4    7    2
 -0.04442091577180324    8    4    7    3
 0.004793138313308721    8    4    7    4
 0.01415683757224519    8    4    7    5
 0.001466417161487529    8    4    7    6
 0.0104468631787152    8    4    7    7
 0.001598023720688815    8    4    8    1
 -0.009710460488260152    8    4    8    2
 0.005093683362691745    8    4    8    3
 0.04775943249549022    8    4    8    4
 -0.02319918192974224    8    5    1    1
 0.04796950377483229    8    5    2    1
 0.01197863234741357    8    5    2    2
 0.002595121655555538    8    5    3    1
 -0.00396511250122034    8    5    3    2
 -0.002811131472605545    8    5    3    3
 0.04559345899605553    8    5    4    1
 0.006454044261827939    8    5    4    2
 -0.01067818077521202    8    5    4    3
 0.003321752836031441    8    5    4    4
 -0.0110609630928146    8    5    5    1
 0.03778828093624548    8    5    5    2
 -0.003260306162533093    8    5    5    3
 0.002092932201326897    8    5    5    4
 -0.0008211269454478001    8    5    5    5
 0.006487680122462557    8    5    6    1
 0.001837417170442952    8    5    6    2
 -0.05695917875122211    8    5    6    3
 0.00061805453778635    8    5    6    4
 -0.01587870065210258    8    5    6    5
 -0.0005873775213903077    8    5    6    6
 -0.0006811284795510053    8    5    7    1
 -0.009343096133059593    8    5    7    2
 0.006331996471701721    8    5    7    3
 0.04323110147748754    8    5    7    4
 -0.0002379284320659942    8    5    7    5
 7.109777293331718e-05    8    5    7    6
 0.002635163805971303    8    5    7    7
 -0.01590651153880819    8    5    8    1
 -0.0017626005223365    8    5    8    2
 0.005170211791966978    8    5    8    3
 -0.005989422129437199    8    5    8    4
 0.06151601058219528    8    5    8    5
 -0.05508657030400799    8    6    1    1
 -0.005285600630619464    8    6    2    1
 -0.004161044942668351    8    6    2    2
 0.07108471445358512    8    6    3    1
 0.002074888299131251    8    6    3    2
 -0.02228590732382378    8    6    3    3
 0.006028608624640687    8    6    4    1
 -0.05635618964421742    8    6    4    2
 0.009564317732558301    8    6    4    3
 0.00616837642719761    8    6    4    4
 0.007986139842711466    8    6    5    1
 0.001918455872316596    8    6    5    2
 -0.07643778470710702    8    6    5    3
 0.0009299775005014652    8    6    5    4
 -0.03153309302581679    8    6    5    5
 0.000135031685072849    8    6    6    1
 -0.002555341580152621    8    6    6    2
 -0.004163215492168268    8    6    6    3
 -0.05549074205406847    8    6    6    4
 0.008207236136035934    8    6    6    5
 -0.03194973472806018    8    6    6    6
 0.008982420032160831    8    6    7    1
 0.001042751258212196    8    6    7    2
 -0.005223539531630078    8    6    7    3
 0.0009374464669919067    8    6    7    4
 -0.05650139430172834    8    6    7    5
 -0.0001099795524859594    8    6    7    6
 0.007995042900951176    8    6    7    7
 -0.0007708934082027276    8    6    8    1
 0.002681760927542024    8    6    8    2
 0.001280779569969475    8    6    8    3
 0.005250058654467682    8    6    8    4
 0.003685710136471515    8    6    8    5
 0.08245637024170249    8    6    8    6
 -0.02730794293649734    8    7    1    1
 0.08657753041955732    8    7    2    1
 0.03442341474984566    8    7    2    2
 -0.01561501738785467    8    7    3    1
 0.06949035456723224    8    7    3    2
 -0.01869861735763977    8    7    3    3
 -0.003829749784143168    8    7    4    1
 -0.004510147034195744    8    7    4    2
 -0.09555449635756282    8    7    4    3
 0.01543795421900521    8    7    4    4
 -0.002297275475037228    8    7    5    1
 -0.007468139595407758    8    7    5    2
 0.009927732423573882    8    7    5    3
 0.08195265304953114    8    7    5    4
 -0.002523383999005879    8    7    5    5
 0.01096848433041063    8    7    6    1
 0.001746455717801424    8    7    6    2
 -0.01120417611353391    8    7    6    3
 0.002594171913795518    8    7    6    4
 -0.06883966654331022    8    7    6    5
 -0.002688843860380565    8    7    6    6
 -0.001140429560637543    8    7    7    1
 -0.002709221695462016    8    7    7    2
 0.0023136919491275    8    7    7    3
 0.0004227985678736876    8    7    7    4
 0.002632157447933658    8    7    7    5
 0.08516767178585717    8    7    7    6
 0.01372925094707076    8    7    7    7
 -0.0150728337661968    8    7    8    1
 -0.001770793825605777    8    7    8    2
 0.002064465187249958    8    7    8    3
 -0.002212593444740861    8    7    8    4
 0.01218130128537341    8    7    8    5
 -0.009220760965048204    8    7    8    6
 0.1034069139808552    8    7    8    7
 0.2803242737927982    8    8    1    1
 -0.01653220617308482    8    8    2    1
 0.2532808856987265    8    8    2    2
 -0.01598322299222889    8    8    3    1
 -0.01529967650545168    8    8    3    2
 0.2903103725436921    8    8    3    3
 0.0009683367654606256    8    8    4    1
 -0.000427541807180562    8    8    4    2
 0.01551204598022124    8    8    4    3
 0.2604380832679895    8    8    4    4
 -0.02077805989732884    8    8    5    1
 -0.003320463926700292    8    8    5    2
 0.02241686755082272    8    8    5    3
 -0.01768209543344829    8    8    5    4
 0.2753325826741793    8    8    5    5
 -0.0002432958866565964    8    8    6    1
 0.001615079328706843    8    8    6    2
 0.003964175283418404    8    8    6    3
 0.02046468285897632    8    8    6    4
 0.01052236868338678    8    8    6    5
 0.2789395238494097    8    8    6    6
 -0.01797126605891233    8    8    7    1
 -0.001724832096841777    8    8    7    2
 -0.001184472778276414    8    8    7    3
 -0.001592753151070499    8    8    7    4
 0.02184139433116848    8    8    7    5
 -0.01815247329345589    8    8    7    6
 0.271049562501675    8    8    7    7
 0.007475124448181404    8    8    8    1
 -0.02149797226397748    8    8    8    2
 0.003004977777979388    8    8    8    3
 0.001933909829670278    8    8    8    4
 -0.003773053098862375    8    8    8    5
 -0.02400527823898612    8    8    8    6
 -0.01669414890228594    8    8    8    7
 0.3090822179451371    8    8    8    8
 -0.001920090490481795    9    1    1    1
 0.0005630019700377748    9    1    2    1
 0.0006206446445543095    9    1    2    2
 0.002391843366813301    9    1    3    1
 -0.0004479932636187477    9    1    3    2
 -0.004735353379258187    9    1    3    3
 0.001009327647930833    9    1    4    1
 0.002654731389556567    9    1    4    2
 -0.002510570787013593    9    1    4    3
 -0.01448439014943387    9    1    4    4
 0.004544960350935837    9    1    5    1
 6.670312831442814e-06    9    1    5    2
 0.0141242473165683    9    1    5    3
 -0.0006182337526874045    9    1    5    4
 0.012206975035634    9    1    5    5
 0.006247347511150325    9    1    6    1
 -0.01708339536041795    9    1    6    2
 -0.001777533903170403    9    1    6    3
 -0.01709989184631727    9    1    6    4
 0.001283005997543703    9    1    6    5
 0.008363774915111642    9    1    6    6
 -0.01400396229659673    9    1    7    1
 -0.001739844618555694    9    1    7    2
 0.01332074949516164    9    1    7    3
 -0.001331333748558573    9    1    7    4
 -0.01416088006793118    9    1    7    5
 -0.0004071380795673612    9    1    7    6
 -0.01298006841957899    9    1    7    7
 -0.004165414683571077    9    1    8    1
 0.01256206140660396    9    1    8    2
 -0.002511824866006232    9    1    8    3
 -0.01054708394470562    9    1    8    4
 0.001318407088472963    9    1    8    5
 -0.01199983314655601    9    1    8    6
 0.002112201629651233    9    1    8    7
 -0.004347656614666365    9    1    8    8
 0.03222668351967526    9    1    9    1
 -6.601601701830082e-05    9    2    1    1
 0.0009535844078173315    9    2    2    1
 0.0009506892295577831    9    2    2    2
 -0.0001654512027628984    9    2    3    1
 -0.0005629379580609819    9    2    3    2
 -0.0006390263555469593    9    2    3    3
 0.003185819961261003    9    2    4    1
 0.004546770123083968    9    2    4    2
 0.0179286225055305    9    2    4    3