 &FCI NORB=   6,NELEC= 6,MS2=0,
  ORBSYM=1,1,1,1,1,1,
  ISYM=1,
 &END
 0.4098946324595025    1    1    1    1
 -0.03168526130287795    2    1    1    1
 0.1367204881823281    2    1    2    1
 0.3322159225380766    2    2    1    1
 0.03288545879488056    2    2    2    1
 0.3808933889519149    2    2    2    2
 -0.06280077141556414    3    1    1    1
 -0.01855689909363483    3    1    2    1
 0.0282382847188955    3    1    2    2
 0.1073541211071551    3    1    3    1
 -0.02899763834666087    3    2    1    1
 0.097183266271202    3    2    2    1
 0.03199503957849265    3    2    2    2
 -0.002646006973567077    3    2    3    1
 0.1158474756040918    3    2    3    2
 0.3621210275791412    3    3    1    1
 -0.004882137630958919    3    3    2    1
 0.3344235274794783    3    3    2    2
 -0.02909258404926584    3    3    3    1
 -0.01146331316924339    3    3    3    2
 0.3681138840920724    3    3    3    3
 -0.02204263989456423    4    1    1    1
 0.04417207758042584    4    1    2    1
 0.00537818796241102    4    1    2    2
 0.006893874004367755    4    1    3    1
 -0.02164519310324315    4    1    3    2
 0.00230244382754544    4    1    3    3
 0.08176024025065615    4    1    4    1
 0.06692235097479218    4    2    1    1
 0.005879694927513391    4    2    2    1
 0.007760961844308021    4    2    2    2
 -0.06278836171479393    4    2    3    1
 -0.009707827433894698    4    2    3    2
 0.009016996511952102    4    2    3    3
 -0.001922780082995769    4    2    4    1
 0.08181114899780807    4    2    4    2
 0.01597746510183608    4    3    1    1
 -0.09010583644978554    4    3    2    1
 -0.02299576750823391    4    3    2    2
 0.01714165802604561    4    3    3    1
 -0.07475197568586139    4    3    3    2
 0.003068247625174422    4    3    3    3
 -0.0149030699452706    4    3    4    1
 -0.006772145751140289    4    3    4    2
 0.1101623926208255    4    3    4    3
 0.3669161554735134    4    4    1    1
 -0.00487716147568211    4    4    2    1
 0.3391743506087488    4    4    2    2
 -0.02860316793836502    4    4    3    1
 -0.01027442596444524    4    4    3    2
 0.362565596283939    4    4    3    3
 -0.0006335207117464138    4    4    4    1
 0.0185417881086798    4    4    4    2
 0.002902259689482878    4    4    4    3
 0.3758621989427506    4    4    4    4
 0.01467963426243051    5    1    1    1
 -0.00707551208893629    5    1    2    1
 0.03465099229318962    5    1    2    2
 0.02725468727673936    5    1    3    1
 0.002334526212849568    5    1    3    2
 -0.01704803481105932    5    1    3    3
 -0.0102657990068302    5    1    4    1
 0.02848945152703997    5    1    4    2
 0.001358873341718182    5    1    4    3
 -0.008234739911477898    5    1    4    4
 0.05495913382301094    5    1    5    1
 -0.005928403226912846    5    2    1    1
 0.03969220765078903    5    2    2    1
 0.01585190585727192    5    2    2    2
 0.001766531716401342    5    2    3    1
 -0.001588343496329757    5    2    3    2
 -0.001578350754672997    5    2    3    3
 0.04986844842352074    5    2    4    1
 0.01427876028847972    5    2    4    2
 0.02991684139284834    5    2    4    3
 -0.0008689116820414025    5    2    4    4
 0.007186468604056602    5    2    5    1
 0.0878191604668459    5    2    5    2
 0.0699687138955863    5    3    1    1
 0.005229026253674608    5    3    2    1
 0.009823110604609005    5    3    2    2
 -0.06460560304442624    5    3    3    1
 -0.008561179004557485    5    3    3    2
 0.01995965738626554    5    3    3    3
 -0.003107080809477788    5    3    4    1
 0.07546689491771223    5    3    4    2
 -0.0074954789187625    5    3    4    3
 0.01522206465196288    5    3    4    4
 0.02201752183934085    5    3    5    1
 0.01162693848100917    5    3    5    2
 0.08144160240726986    5    3    5    3
 -0.02972908675594711    5    4    1    1
 0.1012498067480781    5    4    2    1
 0.03106971654798687    5    4    2    2
 -0.004304574274735004    5    4    3    1
 0.1105852785915384    5    4    3    2
 -0.01160064011788701    5    4    3    3
 -0.01198476003149396    5    4    4    1
 -0.007349593714399184    5    4    4    2
 -0.07784025613363818    5    4    4    3
 -0.01069877444372947    5    4    4    4
 0.001648701156432043    5    4    5    1
 0.001491839411965158    5    4    5    2
 -0.007480220185104539    5    4    5    3
 0.1198087237803583    5    4    5    4
 0.3494965304067813    5    5    1    1
 0.02533679864435723    5    5    2    1
 0.3859259794377876    5    5    2    2
 0.01967363267234518    5    5    3    1
 0.024722493460949    5    5    3    2
 0.3495920150883914    5    5    3    3
 0.003275025664277047    5    5    4    1
 0.01248770155008855    5    5    4    2
 -0.01872073690778479    5    5    4    3
 0.3576114004607661    5    5    4    4
 0.0336142540344948    5    5    5    1
 0.01395544869103888    5    5    5    2
 0.01410976336421594    5    5    5    3
 0.02555931450804586    5    5    5    4
 0.4100135342417149    5    5    5    5
 -0.0006101198946047494    6    1    1    1
 0.005658181934735352    6    1    2    1
 -0.0047513354219419    6    1    2    2
 -0.01069003692333902    6    1    3    1
 0.02305065400383851    6    1    3    2
 0.001151263105668602    6    1    3    3
 -0.02238593121146969    6    1    4    1
 -0.004834358885808427    6    1    4    2
 0.04232654957769105    6    1    4    3
 0.001479337765579378    6    1    4    4
 -0.0104410315098337    6    1    5    1
 0.03762429091110737    6    1    5    2
 -0.004665367061517309    6    1    5    3
 0.02104571821557567    6    1    5    4
 -0.005328370798862671    6    1    5    5
 0.06737868158760202    6    1    6    1
 0.01451415002777454    6    2    1    1
 -0.004963058874125337    6    2    2    1
 0.03578303342993638    6    2    2    2
 0.0268174182899246    6    2    3    1
 0.003069370735982617    6    2    3    2
 -0.01072129994653716    6    2    3    3
 -0.007768740260867641    6    2    4    1
 0.02367693516035522    6    2    4    2
 0.002763653433912847    6    2    4    3
 -0.01201717154072277    6    2    4    4
 0.05060512811122357    6    2    5    1
 0.01057368333039567    6    2    5    2
 0.02540800727592093    6    2    5    3
 0.002395878186869201    6    2    5    4
 0.03569092057867363    6    2    5    5
 -0.00795302925915751    6    2    6    1
 0.05241527614548588    6    2    6    2
 -0.01990100804795274    6    3    1    1
 0.04589418581476703    6    3    2    1
 0.006305902889932477    6    3    2    2
 0.003854897108583216    6    3    3    1
 -0.01440903156329761    6    3    3    2
 0.001432712544355852    6    3    3    3
 0.07609783138445123    6    3    4    1
 0.0008057032623927964    6    3    4    2
 -0.01765690342967948    6    3    4    3
 0.001343302106090273    6    3    4    4
 -0.008987845146421147    6    3    5    1
 0.04951499346664728    6    3    5    2
 -0.001417403868094084    6    3    5    3
 -0.01501496805349689    6    3    5    4
 0.004374034481817116    6    3    5    5
 -0.02176535960741455    6    3    6    1
 -0.007883680960059604    6    3    6    2
 0.08104246211183785    6    3    6    3
 -0.06778177628635296    6    4    1    1
 -0.01472754825116249    6    4    2    1
 0.02157839758412636    6    4    2    2
 0.1035939825594831    6    4    3    1
 0.001176318552344381    6    4    3    2
 -0.03326639273239713    6    4    3    3
 0.006421010258773751    6    4    4    1
 -0.06421754432142586    6    4    4    2
 0.0149016276365299    6    4    4    3
 -0.03343169797053971    6    4    4    4
 0.0254242078799155    6    4    5    1
 0.001753004038151909    6    4    5    2
 -0.06694304001560977    6    4    5    3
 -0.001103064779149742    6    4    5    4
 0.02215560886598376    6    4    5    5
 -0.00975123814294422    6    4    6    1
 0.02637267953804392    6    4    6    2
 0.004379675365832059    6    4    6    3
 0.1124905055224675    6    4    6    4
 -0.0330863230689192    6    5    1    1
 0.141172806373777    6    5    2    1
 0.03555098287739729    6    5    2    2
 -0.01743321392507558    6    5    3    1
 0.1026072874288102    6    5    3    2
 -0.005068139444527837    6    5    3    3
 0.04556970545098996    6    5    4    1
 0.005250657204138386    6    5    4    2
 -0.0963542987528582    6    5    4    3
 -0.00472990593200761    6    5    4    4
 -0.0067853509161842    6    5    5    1
 0.04173785469088492    6    5    5    2
 0.004769427905358423    6    5    5    3
 0.1097678959390649    6    5    5    4
 0.02945570982535296    6    5    5    5
 0.005256917415912    6    5    6    1
 -0.004804685523419029    6    5    6    2
 0.05096776230677808    6    5    6    3
 -0.01499135135891292    6    5    6    4
 0.1597194471788276    6    5    6    5
 0.4353935858462481    6    6    1    1
 -0.02568829048591113    6    6    2    1
 0.3555942509964337    6    6    2    2
 -0.07061577120837259    6    6    3    1
 -0.02621543020516899    6    6    3    2
 0.3895648064540845    6    6    3    3
 -0.02074622274266991    6    6    4    1
 0.07416939631937354    6    6    4    2
 0.01205134216753264    6    6    4    3
 0.3979166569690514    6    6    4    4
 0.01478891600123709    6    6    5    1
 -0.003836524602316649    6    6    5    2
 0.07999987932583343    6    6    5    3
 -0.02719216105598069    6    6    5    4
 0.3839598561571046    6    6    5    5
 -0.0001986970079279364    6    6    6    1
 0.01561412598223809    6    6    6    2
 -0.01955213777891377    6    6    6    3
 -0.08058307368734241    6    6    6    4
 -0.02908607025823295    6    6    6    5
 0.4876508557456487    6    6    6    6
 -2.192258918356363    1    1  0  0
 0.005917963630249315    2    1  0  0
 -1.992940500326729    2    2  0  0
 0.1326000715813719    3    1  0  0
 0.01890669026497501    3    2  0  0
 -1.860047042688546    3    3  0  0
 0.02970252548314306    4    1  0  0
 -0.1902196002554543    4    2  0  0
 0.008154417883400541    4    3  0  0
 -1.656663450208802    4    4  0  0
 -0.07479896135080992    5    1  0  0
 -0.01647507375417737    5    2  0  0
 -0.1538769335514487    5    3  0  0
 0.01703737890711459    5    4  0  0
 -1.351003139316486    5    5  0  0
 0.006702111505812073    6    1  0  0
 -0.05211957299539732    6    2  0  0
 0.01813701712032411    6    3  0  0
 0.142573671147855    6    4  0  0
 0.003922184699147273    6    5  0  0
 -1.222591003973115    6    6  0  0
 4.413966092937137  0  0  0  0
