 &FCI NORB=  18,NELEC=18,MS2=0,
  ORBSYM=1,1,1,1,1,1,1,1,1,1,1,1,1,1,1,1,1,1,
  ISYM=1,
 &END
 0.2328380355560012    1    1    1    1
 -0.04942977166326968    2    1    1    1
 0.1031278237567559    2    1    2    1
 0.1744200602426947    2    2    1    1
 0.05250109121911421    2    2    2    1
 0.2406464414091586    2    2    2    2
 -0.01775596346284087    3    1    1    1
 -0.01094244058944339    3    1    2    1
 0.0127890813594817    3    1    2    2
 0.08013323100512601    3    1    3    1
 -0.0160148764852252    3    2    1    1
 0.03924308496731371    3    2    2    1
 0.02558172170179414    3    2    2    2
 -0.01428838512776867    3    2    3    1
 0.05398461153390315    3    2    3    2
 0.1938503113499413    3    3    1    1
 -0.02540773972976821    3    3    2    1
 0.1568433161851595    3    3    2    2
 -0.01326050342103721    3    3    3    1
 -0.01535361836649212    3    3    3    2
 0.2096488561979327    3    3    3    3
 -0.01761366251774271    4    1    1    1
 0.02117593857936286    4    1    2    1
 0.005856356626768048    4    1    2    2
 0.01971458412803699    4    1    3    1
 -0.03549477502019178    4    1    3    2
 0.000425324580417489    4    1    3    3
 0.05471054154822724    4    1    4    1
 0.03082473941535833    4    2    1    1
 0.003602564897496653    4    2    2    1
 0.006623550477340902    4    2    2    2
 -0.04870600220724475    4    2    3    1
 -0.01966196478031353    4    2    3    2
 0.0004109478740962627    4    2    3    3
 0.01501292819624127    4    2    4    1
 0.07344182685764078    4    2    4    2
 0.03441212555171901    4    3    1    1
 -0.07140026085140343    4    3    2    1
 -0.03648887018545522    4    3    2    2
 0.009354189148879933    4    3    3    1
 -0.03600300844635015    4    3    3    2
 0.0269172034483099    4    3    3    3
 -0.002755396498973877    4    3    4    1
 0.004295431975742642    4    3    4    2
 0.08064708524252401    4    3    4    3
 0.1670776090976026    4    4    1    1
 0.02783090421544858    4    4    2    1
 0.1925675919364312    4    4    2    2
 -0.007588992357443147    4    4    3    1
 0.01084093929812584    4    4    3    2
 0.170656950641497    4    4    3    3
 0.00395179132324786    4    4    4    1
 0.005588352937140076    4    4    4    2
 -0.02764865305250522    4    4    4    3
 0.2023688504524593    4    4    4    4
 -0.02943406948446303    5    1    1    1
 0.0131353216209427    5    1    2    1
 -0.0290628224105297    5    1    2    2
 -0.01381689931629625    5    1    3    1
 -0.001216621061505172    5    1    3    2
 0.02207229372344096    5    1    3    3
 0.01072679546107352    5    1    4    1
 -0.01913735420200724    5    1    4    2
 0.0004876924996784449    5    1    4    3
 0.001519222516241924    5    1    4    4
 0.05427008698190629    5    1    5    1
 0.01429365870347774    5    2    1    1
 -0.03516203686927702    5    2    2    1
 -0.02147511874409982    5    2    2    2
 -0.002974217582394233    5    2    3    1
 0.004241067752605364    5    2    3    2
 0.001433070161972536    5    2    3    3
 -0.02881841659752132    5    2    4    1
 -0.01495385352931176    5    2    4    2
 -0.00620558855052136    5    2    4    3
 -0.001247177122915625    5    2    4    4
 -0.008215665921640131    5    2    5    1
 0.04503904316353877    5    2    5    2
 -0.0268826488723445    5    3    1    1
 -0.004967025065769459    5    3    2    1
 -0.002621624500359123    5    3    2    2
 0.05331699691505178    5    3    3    1
 -0.003506658590176813    5    3    3    2
 -0.01900150208065073    5    3    3    3
 0.008347034995381138    5    3    4    1
 -0.0367006645928593    5    3    4    2
 0.009687940365379582    5    3    4    3
 0.006384525467001778    5    3    4    4
 -0.003340725659375021    5    3    5    1
 -0.00441901821805304    5    3    5    2
 0.06661752281480635    5    3    5    3
 0.02357921116981799    5    4    1    1
 -0.05123783221406892    5    4    2    1
 -0.02915006476626341    5    4    2    2
 0.008763111937754923    5    4    3    1
 -0.03752258728818626    5    4    3    2
 0.01760140141887944    5    4    3    3
 0.009822087600659397    5    4    4    1
 0.008702868266268423    5    4    4    2
 0.04918982900474651    5    4    4    3
 -0.0197032656417087    5    4    4    4
 -0.001001505646995669    5    4    5    1
 0.001242374818149601    5    4    5    2
 0.006463953605272334    5    4    5    3
 0.05728461668238782    5    4    5    4
 0.1882815647006215    5    5    1    1
 -0.01785797519556824    5    5    2    1
 0.1636499668812611    5    5    2    2
 -0.00933301611631553    5    5    3    1
 -0.009811554293440687    5    5    3    2
 0.184646127094082    5    5    3    3
 -0.001752162915944704    5    5    4    1
 0.008978117520579507    5    5    4    2
 0.01487503430292105    5    5    4    3
 0.1659209647390373    5    5    4    4
 0.0002792065841904496    5    5    5    1
 0.003134511366557435    5    5    5    2
 -0.01231671846840199    5    5    5    3
 0.01453311681436322    5    5    5    4
 0.1955100189064592    5    5    5    5
 0.005259891306037275    6    1    1    1
 -0.01417659665644059    6    1    2    1
 -0.00539949397227942    6    1    2    2
 0.01450710751658759    6    1    3    1
 -0.02174461618052411    6    1    3    2
 -0.004655141103256368    6    1    3    3
 0.01425957389177486    6    1    4    1
 0.002759227802564049    6    1    4    2
 -0.01629003832992142    6    1    4    3
 0.003158985227028591    6    1    4    4
 -0.01253333083695577    6    1    5    1
 0.02368689660623647    6    1    5    2
 -0.001882749037903854    6    1    5    3
 0.002906190138704398    6    1    5    4
 0.001022777598837781    6    1    5    5
 0.04072201390726204    6    1    6    1
 -0.01435537526384867    6    2    1    1
 -0.006658378650738286    6    2    2    1
 -0.03796735001845192    6    2    2    2
 -0.02389410088558233    6    2    3    1
 -0.00819607758990323    6    2    3    2
 0.007978319125879015    6    2    3    3
 0.001753050352608623    6    2    4    1
 0.003030226269275032    6    2    4    2
 -0.003581240734882355    6    2    4    3
 0.01352776813561198    6    2    4    4
 0.0301979239263172    6    2    5    1
 0.01360713463624677    6    2    5    2
 0.005902605931112425    6    2    5    3
 0.0005969724389170619    6    2    5    4
 -0.00104863773588033    6    2    5    5
 0.006354661151172403    6    2    6    1
 0.04856244546483688    6    2    6    2
 0.02074453035512243    6    3    1    1
 -0.0313426562311314    6    3    2    1
 -0.01174787768683225    6    3    2    2
 -0.009468819251702697    6    3    3    1
 0.01319210510154187    6    3    3    2
 0.006339531301629044    6    3    3    3
 -0.0353699031066377    6    3    4    1
 -0.009578147718984712    6    3    4    2
 0.0117147279377781    6    3    4    3
 -0.00420945051283101    6    3    4    4
 -0.00832701630182686    6    3    5    1
 0.02537604847295979    6    3    5    2
 -0.009734333619299393    6    3    5    3
 -0.01816189113676284    6    3    5    4
 0.0002720883503369445    6    3    5    5
 -0.000487165101219861    6    3    6    1
 0.002177448064626692    6    3    6    2
 0.04862349314148279    6    3    6    3
 0.0323715016975066    6    4    1    1
 0.002487406364607595    6    4    2    1
 0.009463984223938512    6    4    2    2
 -0.04370095463262354    6    4    3    1
 -0.01010670756289933    6    4    3    2
 0.02041223233317293    6    4    3    3
 0.005624097714330963    6    4    4    1
 0.04633554686568104    6    4    4    2
 -0.0004457133824221011    6    4    4    3
 0.008374629000833035    6    4    4    4
 -0.002029662342151165    6    4    5    1
 -0.004796062587493613    6    4    5    2
 -0.04462647163190951    6    4    5    3
 0.01001170386857781    6    4    5    4
 -0.0007789149949333964    6    4    5    5
 0.001681494852862877    6    4    6    1
 0.001300694293700927    6    4    6    2
 -0.007352078272055662    6    4    6    3
 0.06155507115521703    6    4    6    4
 -0.03014684668279046    6    5    1    1
 0.06511232851964911    6    5    2    1
 0.03392093282263795    6    5    2    2
 -0.01176837155698412    6    5    3    1
 0.03728313003840533    6    5    3    2
 -0.02070528770731447    6    5    3    3
 -0.001716718642418882    6    5    4    1
 -0.004277511644075148    6    5    4    2
 -0.06104544541193688    6    5    4    3
 0.02175440296491419    6    5    4    4
 0.003295659738672043    6    5    5    1
 -0.004588580967972783    6    5    5    2
 -0.008673991551694656    6    5    5    3
 -0.04970927425314107    6    5    5    4
 -0.01628030517672252    6    5    5    5
 -0.0004985443534097538    6    5    6    1
 -0.0007891253185759897    6    5    6    2
 -0.001147264789420902    6    5    6    3
 -0.003550734894935217    6    5    6    4
 0.07081795131528816    6    5    6    5
 0.1700686027854258    6    6    1    1
 0.01628579763120596    6    6    2    1
 0.1839162750736066    6    6    2    2
 -0.006536454725565086    6    6    3    1
 0.006375251486374304    6    6    3    2
 0.1700413668993753    6    6    3    3
 0.002017576016312474    6    6    4    1
 0.005925538216770693    6    6    4    2
 -0.014939027288814    6    6    4    3
 0.1817397685291478    6    6    4    4
 -0.001169000646882767    6    6    5    1
 -0.002346019882885447    6    6    5    2
 -0.00504397430818096    6    6    5    3
 -0.009907729144991762    6    6    5    4
 0.1720682623175296    6    6    5    5
 0.001036685639783128    6    6    6    1
 0.0004502474819506204    6    6    6    2
 -0.002904773747841779    6    6    6    3
 0.00546853416069405    6    6    6    4
 0.01463634618805248    6    6    6    5
 0.1895264120634762    6    6    6    6
 -0.00251540942361671    7    1    1    1
 0.0009977366316477382    7    1    2    1
 0.00477287291548044    7    1    2    2
 0.01792043942993354    7    1    3    1
 -0.005842374321357832    7    1    3    2
 0.01524423818673066    7    1    3    3
 0.01048367813478322    7    1    4    1
 -0.0216961555371506    7    1    4    2
 -0.002467975073809743    7    1    4    3
 -0.0116819376444094    7    1    4    4
 0.01237841874446515    7    1    5    1
 1.500812419669595e-05    7    1    5    2
 -0.01616703723943443    7    1    5    3
 -0.00189413070121476    7    1    5    4
 0.001650801133571995    7    1    5    5
 0.008939201543869936    7    1    6    1
 -0.01683788233397706    7    1    6    2
 0.0005042938495860386    7    1    6    3
 0.0009728655192634488    7    1    6    4
 0.001462848222331276    7    1    6    5
 -0.001871358107399639    7    1    6    6
 0.03856702854783479    7    1    7    1
 0.0007538315334774287    7    2    1    1
 0.004024215081252556    7    2    2    1
 0.006115283640073806    7    2    2    2
 -0.006520344365639478    7    2    3    1
 0.0246838702664982    7    2    3    2
 0.0003441710584816026    7    2    3    3
 -0.02439038864268127    7    2    4    1
 -0.01355831051898032    7    2    4    2
 0.002274860993665856    7    2    4    3
 -0.005751781201955921    7    2    4    4
 0.0007273909227308284    7    2    5    1
 0.0003178848382573125    7    2    5    2
 -0.0004783449717268471    7    2    5    3
 0.00948205785634227    7    2    5    4
 0.001605372370939378    7    2    5    5
 -0.02217176356718951    7    2    6    1
 -0.01142533565584114    7    2    6    2
 -0.006750823253814041    7    2    6    3
 0.000520951996144238    7    2    6    4
 -0.001854545926569686    7    2    6    5
 -0.001278484848084114    7    2    6    6
 -0.003483827103663751    7    2    7    1
 0.0354436561991804    7    2    7    2
 0.02519063640549594    7    3    1    1
 -0.009098179417341996    7    3    2    1
 0.03102917737795948    7    3    2    2
 0.02154488490933746    7    3    3    1
 -0.0003416717326429077    7    3    3    2
 -0.002959094092455991    7    3    3    3
 -0.003894625111363202    7    3    4    1
 0.00251944507181244    7    3    4    2
 0.004571795433040955    7    3    4    3
 0.008413054228151305    7    3    4    4
 -0.03280786071283915    7    3    5    1
 0.001268632289607364    7    3    5    2
 0.00924302208135621    7    3    5    3
 -0.001235567482129425    7    3    5    4
 -0.01515296932718297    7    3    5    5
 0.005492002851302764    7    3    6    1
 -0.02318404120209036    7    3    6    2
 0.008893182883170717    7    3    6    3
 0.01447288878322936    7    3    6    4
 -0.001106572637074008    7    3    6    5
 0.0005764870241352607    7    3    6    6
 4.065873250878134e-05    7    3    7    1
 -0.00181229666108651    7    3    7    2
 0.04762380591729357    7    3    7    3
 0.01705043391851355    7    4    1    1
 -0.0377748427095379    7    4    2    1
 -0.02139752265708093    7    4    2    2
 -0.00407511853913574    7    4    3    1
 0.00370870303882443    7    4    3    2
 0.005572114881234737    7    4    3    3
 -0.02880329648601608    7    4    4    1
 -0.01175608432338499    7    4    4    2
 0.01322971143109709    7    4    4    3
 -0.008367603749495418    7    4    4    4
 -0.005839112903612867    7    4    5    1
 0.02955033712864918    7    4    5    2
 -0.004126574624482134    7    4    5    3
 -0.001195452022485944    7    4    5    4
 0.002471812777432541    7    4    5    5
 0.006670160491673143    7    4    6    1
 0.006273467362473764    7    4    6    2
 0.03460643614300905    7    4    6    3
 -0.01014079656334623    7    4    6    4
 0.005841921582384908    7    4    6    5
 -0.001927867125680979    7    4    6    6
 -9.913222359287819e-05    7    4    7    1
 -0.002407356201089312    7    4    7    2
 0.003701846224750814    7    4    7    3
 0.04571437842686015    7    4    7    4
 0.03251501013639731    7    5    1    1
 0.002331552957812447    7    5    2    1
 0.00824129494042343    7    5    2    2
 -0.0490420638965748    7    5    3    1
 0.0008107117372119525    7    5    3    2
 0.02083639965661884    7    5    3    3
 -0.006774854472301606    7    5    4    1
 0.03906305505600644    7    5    4    2
 -0.005237815079680375    7    5    4    3
 0.005491206289511341    7    5    4    4
 -0.0008117565235730619    7    5    5    1
 0.002425271376493835    7    5    5    2
 -0.05142264971279754    7    5    5    3
 -0.001101126817600937    7    5    5    4
 0.01354642362786242    7    5    5    5
 0.0001766802170693751    7    5    6    1
 -0.0006205010707271857    7    5    6    2
 0.005252564989780476    7    5    6    3
 0.04298029842340893    7    5    6    4
 0.007342563193605513    7    5    6    5
 -0.00424079100422387    7    5    6    6
 0.003930505214546624    7    5    7    1
 0.000979675430466388    7    5    7    2
 -0.00152402052797468    7    5    7    3
 0.003615723811883281    7    5    7    4
 0.0601407846138356    7    5    7    5
 0.02652945460449679    7    6    1    1
 -0.05637842154266075    7    6    2    1
 -0.03131556191245803    7    6    2    2
 0.008504314927766389    7    6    3    1
 -0.03826633700796738    7    6    3    2
 0.0209010998800787    7    6    3    3
 0.007889093949874224    7    6    4    1
 0.008422371665730146    7    6    4    2
 0.05704627139198044    7    6    4    3
 -0.02105160892098708    7    6    4    4
 0.0002128213357383436    7    6    5    1
 -0.001041871352065042    7    6    5    2
 0.005233348953248189    7    6    5    3
 0.04884586751285385    7    6    5    4
 0.01458613845310325    7    6    5    5
 -0.0008124124316084918    7    6    6    1
 0.0004345383850470749    7    6    6    2
 -0.004343576270589758    7    6    6    3
 0.006121109666065964    7    6    6    4
 -0.05544969916881638    7    6    6    5
 -0.01326075014442449    7    6    6    6
 -5.745885135501755e-05    7    6    7    1
 0.001113840214166619    7    6    7    2
 -1.570655947338417e-05    7    6    7    3
 0.0001952872880436763    7    6    7    4
 -0.002777179422765611    7    6    7    5
 0.06333761249368501    7    6    7    6
 0.1809015514603036    7    7    1    1
 -0.009829404615402333    7    7    2    1
 0.1671063629655364    7    7    2    2
 -0.004863326178460787    7    7    3    1
 -0.005884292016615101    7    7    3    2
 0.1831745185527756    7    7    3    3
 -0.0001814396139865194    7    7    4    1
 0.002452088655052023    7    7    4    2
 0.008803798261185073    7    7    4    3
 0.1710518595103327    7    7    4    4
 0.004322466925938089    7    7    5    1
 0.001577730937250505    7    7    5    2
 -0.006868421280681202    7    7    5    3
 0.007932725929223755    7    7    5    4
 0.1795594370081464    7    7    5    5
 -5.488549637850358e-05    7    7    6    1
 0.001576783684693199    7    7    6    2
 0.0007168319684120687    7    7    6    3
 0.005889299753618665    7    7    6    4
 -0.00781808315682635    7    7    6    5
 0.1722745742037086    7    7    6    6
 0.003792189596608896    7    7    7    1
 0.0008244719394632457    7    7    7    2
 -0.002456804204546586    7    7    7    3
 0.001940146180153335    7    7    7    4
 0.00771595606452812    7    7    7    5
 0.009341815666549132    7    7    7    6
 0.1872427891631708    7    7    7    7
 -0.001394065046183563    8    1    1    1
 0.002879719889873747    8    1    2    1
 0.0005717625209080826    8    1    2    2
 0.00114784956377878    8    1    3    1
 -0.006459255698351343    8    1    3    2
 0.01061666616056592    8    1    3    3
 0.01071416117467985    8    1    4    1
 0.00198580681529536    8    1    4    2
 0.01605371826797068    8    1    4    3
 -0.001262597170170008    8    1    4    4
 0.01181894911951991    8    1    5    1
 -0.01924458361762361    8    1    5    2
 -0.002065996080313585    8    1    5    3
 -0.0127416560198216    8    1    5    4
 -0.004200659984814694    8    1    5    5
 -0.01239182461129202    8    1    6    1
 -0.001492007758634843    8    1    6    2
 0.01332483543347316    8    1    6    3
 -0.001043400974683281    8    1    6    4
 0.003361394109305987    8    1    6    5
 -0.0005319907155764868    8    1    6    6
 0.008242920553599117    8    1    7    1
 -0.01662630758995269    8    1    7    2
 0.00334689052574034    8    1    7    3
 0.003263951433398027    8    1    7    4
 -0.0001104968728345135    8    1    7    5
 0.001225734599365906    8    1    7    6
 0.0006829699851506334    8    1    7    7
 0.03342500373877028    8    1    8    1
 0.002276074326675093    8    2    1    1
 0.0008196888242656878    8    2    2    1
 0.001238653573497438    8    2    2    2
 -0.006651118277971105    8    2    3    1
 -0.003594620769637989    8    2    3    2
 -0.02008972768908174    8    2    3    3
 0.002468707773541644    8    2    4    1
 0.02550907406913502    8    2    4    2
 0.003844321995338638    8    2    4    3
 -0.004611278946873828    8    2    4    4
 -0.02080157175018019    8    2    5    1
 -0.008053243194088417    8    2    5    2
 0.003466149589935045    8    2    5    3
 -0.003752333604029213    8    2    5    4
 0.01009900717846134    8    2    5    5
 -0.001204719270082714    8    2    6    1
 -0.003978317303001113    8    2    6    2
 0.002081077905773996    8    2    6    3
 -0.01433695736705823    8    2    6    4
 0.001480254752384961    8    2    6    5
 0.001485991825407389    8    2    6    6
 -0.02072982926135039    8    2    7    1
 -0.009888667745549511    8    2    7    2
 -0.009397995680453557    8    2    7    3
 0.001613536970672559    8    2    7    4
 -0.001808393419423174    8    2    7    5
 5.387171349476049e-05    8    2    7    6
 -0.004066835406456462    8    2    7    7
 0.0022709958814194    8    2    8    1
 0.0391947692986799    8    2    8    2
 0.00208492884178567    8    3    1    1
 -0.009177802907407695    8    3    2    1
 -0.004357380515820382    8    3    2    2
 0.01450077052219677    8    3    3    1
 -0.02505369873850797    8    3    3    2
 0.0008141755673962049    8    3    3    3
 0.02223296617689862    8    3    4    1
 0.005609009578566685    8    3    4    2
 -0.002128025439984719    8    3    4    3
 0.001491325416711068    8    3    4    4
 -0.003961186068587266    8    3    5    1
 0.005185782026102493    8    3    5    2
 0.002728619845679989    8    3    5    3
 0.005911742149960863    8    3    5    4
 -0.002033453781937833    8    3    5    5
 0.0251585253193253    8    3    6    1
 0.004378303850260231    8    3    6    2
 -0.00444002433995215    8    3    6    3
 0.001300365896785184    8    3    6    4
 0.01128562361034359    8    3    6    5
 0.001619719336883843    8    3    6    6
 0.007790718407369682    8    3    7    1
 -0.02209072173115518    8    3    7    2
 0.007097374928325744    8    3    7    3
 0.01483672365470564    8    3    7    4
 0.001559949822504358    8    3    7    5
 -0.0003662310268513474    8    3    7    6
 0.0007402745446009034    8    3    7    7
 0.004447930504344381    8    3    8    1
 0.001483497806189899    8    3    8    2
 0.03721173609204814    8    3    8    3
 0.01612375096124325    8    4    1    1
 0.003797335112092065    8    4    2    1
 0.03763655947019211    8    4    2    2
 0.02625461344616875    8    4    3    1
 0.006111650390304734    8    4    3    2
 -0.002734373161858996    8    4    3    3
 -0.001238344102411572    8    4    4    1
 -0.006641037882429889    8    4    4    2
 0.0005312956976290901    8    4    4    3
 0.003533839093731637    8    4    4    4
 -0.0265713576570311    8    4    5    1
 -0.007235945286702465    8    4    5    2
 0.007774549006206336    8    4    5    3
 -0.002951051725050361    8    4    5    4
 -0.001498817163117986    8    4    5    5
 -0.00130543718329126    8    4    6    1
 -0.03285561449690651    8    4    6    2
 5.366898901477523e-05    8    4    6    3
 -0.001253122892620616    8    4    6    4
 -0.001279939425003457    8    4    6    5
 -0.009424062980491902    8    4    6    6
 0.008160505889452618    8    4    7    1
 0.005589581958490796    8    4    7    2
 0.02982319988453034    8    4    7    3
 -0.007450002155492335    8    4    7    4
 0.007567226217551898    8    4    7    5
 -8.101528551160289e-05    8    4    7    6
 -0.0006957821834888472    8    4    7    7
 0.0004427730836207874    8    4    8    1
 -0.002840933703174434    8    4    8    2
 -0.002402566545174224    8    4    8    3
 0.04329416838248937    8    4    8    4
 0.02273424734472243    8    5    1    1
 -0.0381294873472599    8    5    2    1
 -0.01556494847177727    8    5    2    2
 -0.005257019141957728    8    5    3    1
 0.00645082190692862    8    5    3    2
 0.005213791400525067    8    5    3    3
 -0.03247753423762531    8    5    4    1
 -0.009276198882417442    8    5    4    2
 0.01112299271491042    8    5    4    3
 -0.005199836351840735    8    5    4    4
 -0.01174434377181253    8    5    5    1
 0.03183259346522926    8    5    5    2
 -0.005967543563020341    8    5    5    3
 -0.002764504098253769    8    5    5    4
 0.003713178173146469    8    5    5    5
 0.007995209613038049    8    5    6    1
 0.003862301572872029    8    5    6    2
 0.03610577550988108    8    5    6    3
 -0.005230217244030382    8    5    6    4
 -0.005727837001528769    8    5    6    5
 -0.002467533450395482    8    5    6    6
 -0.001514393240999114    8    5    7    1
 -0.001046538494744415    8    5    7    2
 0.007647803421104267    8    5    7    3
 0.03426377279290397    8    5    7    4
 0.006001495664017009    8    5    7    5
 -0.01092345474228389    8    5    7    6
 2.614139901848354e-05    8    5    7    7
 -0.002513989013323948    8    5    8    1
 -0.0006090461214438485    8    5    8    2
 0.003057703183186152    8    5    8    3
 -0.001945708388357942    8    5    8    4
 0.0470700943783352    8    5    8    5
 -0.0358734539454403    8    6    1    1
 -0.002375584395313871    8    6    2    1
 -0.01380914267277396    8    6    2    2
 0.04422171203451702    8    6    3    1
 0.006836876176103986    8    6    3    2
 -0.01737854730565993    8    6    3    3
 -0.001769701489318833    8    6    4    1
 -0.04857306174994493    8    6    4    2
 0.0005389912822894708    8    6    4    3
 -0.00784432341019602    8    6    4    4
 0.008718202621049238    8    6    5    1
 0.004823865202708    8    6    5    2
 0.04477404206009986    8    6    5    3
 -0.005336850072501451    8    6    5    4
 -0.01259379319504785    8    6    5    5
 -0.0006115737091076179    8    6    6    1
 0.003293418250412673    8    6    6    2
 0.002536173376819207    8    6    6    3
 -0.04700707820968412    8    6    6    4
 4.604294570170059e-05    8    6    6    5
 -0.006722951562286162    8    6    6    6
 0.002903003023819171    8    6    7    1
 0.001303556692020832    8    6    7    2
 -0.004811727126081726    8    6    7    3
 0.004889186555485515    8    6    7    4
 -0.04589371389070595    8    6    7    5
 -0.005343955208620162    8    6    7    6
 0.002050877880563386    8    6    7    7
 0.0005345018166943965    8    6    8    1
 -0.00387630065038937    8    6    8    2
 -0.0007468588259996406    8    6    8    3
 -0.00190171363197271    8    6    8    4
 0.00303054833197512    8    6    8    5
 0.05705155822745827    8    6    8    6
 0.02708758148614562    8    7    1    1
 -0.0608740128759004    8    7    2    1
 -0.03257215212901026    8    7    2    2
 0.01506262218428957    8    7    3    1
 -0.04428646053069639    8    7    3    2
 0.02013910900056098    8    7    3    3
 0.01234803352289178    8    7    4    1
 0.008211712966032696    8    7    4    2
 0.05990127999166611    8    7    4    3
 -0.02082760674999563    8    7    4    4
 -0.002120832991204914    8    7    5    1
 -0.0006190674319785506    8    7    5    2
 0.01017665472619791    8    7    5    3
 0.05100328808584088    8    7    5    4
 0.01402481874345369    8    7    5    5
 0.003901966870991469    8    7    6    1
 0.001205794674435108    8    7    6    2
 -0.004657226819528784    8    7    6    3
 0.004356029862250283    8    7    6    4
 -0.05914333984388044    8    7    6    5
 -0.01241891344193876    8    7    6    6
 0.0001026750873331906    8    7    7    1
 -0.004402645161770432    8    7    7    2
 0.002717029970935272    8    7    7    3
 -4.819280088983521e-05    8    7    7    4
 -0.006502111214739694    8    7    7    5
 0.05588433282024584    8    7    7    6
 0.008579132089623732    8    7    7    7
 0.001917161555736909    8    7    8    1
 0.0008316781672562    8    7    8    2
 0.005410915857999529    8    7    8    3
 -0.0007940370885793635    8    7    8    4
 -0.001003765851072736    8    7    8    5
 -0.002054205673547723    8    7    8    6
 0.06885730883884589    8    7    8    7
 0.1753591522704264    8    8    1    1
 0.007819166100111838    8    8    2    1
 0.1872374601643585    8    8    2    2
 0.005187299277304609    8    8    3    1
 0.004421926081418431    8    8    3    2
 0.1725750758254567    8    8    3    3
 0.0005548908086323062    8    8    4    1
 -0.001617781921558968    8    8    4    2
 -0.006956380656121911    8    8    4    3
 0.1790527328629263    8    8    4    4
 -0.005923400778533918    8    8    5    1
 -0.001866979642615938    8    8    5    2
 0.0006461254371398304    8    8    5    3
 -0.005392239654939462    8    8    5    4
 0.1731653593064366    8    8    5    5
 0.0008281106939551589    8    8    6    1
 -0.007591734033933948    8    8    6    2
 -0.0009390064184994678    8    8    6    3
 0.001081832828255844    8    8    6    4
 0.006528907039240806    8    8    6    5
 0.1772402664329732    8    8    6    6
 0.002650705734948041    8    8    7    1
 0.0007894234237274733    8    8    7    2
 0.008161522417750882    8    8    7    3
 -0.002149033408988707    8    8    7    4
 0.001418780383008775    8    8    7    5
 -0.005966822666448331    8    8    7    6
 0.1746814054222169    8    8    7    7
 -9.106524371741906e-05    8    8    8    1
 -0.002014422417065176    8    8    8    2
 0.0008242232652325094    8    8    8    3
 0.009596655948751424    8    8    8    4
 -0.001129440308131424    8    8    8    5
 -0.002205432842683203    8    8    8    6
 -0.006531307903868824    8    8    8    7
 0.187070322067018    8    8    8    8
 -0.0004170451326166192    9    1    1    1
 0.0004197831489739865    9    1    2    1
 0.002174979829173059    9    1    2    2
 0.003706112623604772    9    1    3    1
 -0.0008304374351940019    9    1    3    2
 -0.01126557419417841    9    1    3    3
 0.0009724485615396999    9    1    4    1
 0.003451535633046152    9    1    4    2
 -0.006102179403533086    9    1    4    3
 -0.01607237310924848    9    1    4    4
 -0.01271532707214798    9    1    5    1
 0.00280532006210609    9    1    5    2
 -0.01203454588301715    9    1    5    3
 0.001326336480700547    9    1    5    4
 0.0164182708107567    9    1    5    5
 0.008798127360822909    9    1    6    1
 -0.01697044210216614    9    1    6    2
 -0.003566667101531122    9    1    6    3
 -0.01445812663582396    9    1    6    4
 -0.001413468605773638    9    1    6    5
 -0.0006351862752458804    9    1    6    6
 0.008212675746460684    9    1    7    1
 0.000602690463502558    9    1    7    2
 -0.01690995206362467    9    1    7    3
 -0.001435515123991079    9    1    7    4
 0.002768004209234141    9    1    7    5
 -0.0005551432665998749    9    1    7    6
 -0.0007984838296011736    9    1    7    7
 -0.01005335276468057    9    1    8    1
 0.01986959969064335    9    1    8    2
 -0.0008005290554882972    9    1    8    3
 0.002019799932332178    9    1    8    4
 0.0002306077108590931    9    1    8    5
 -0.001459182447670169    9    1    8    6
 -0.0007682770256953303    9    1    8    7
 -0.0004865204262352232    9    1    8    8
 0.03483334387982833    9    1    9    1
 0.0001351128130026372    9    2    1    1
 0.001930923034364456    9    2    2    1
 0.001949617545494968    9    2    2    2
 -0.0008652637527656352    9    2    3    1
 -0.0008070549286126577    9    2    3    2
 0.002931333853251948    9    2    3    3
 0.003349184850933852    9    2    4    1
 0.004652346729954108    9    2    4    2
 0.0185175123857083    9    2    4    3