 &FCI NORB=  24,NELEC=10,MS2=0,
  ORBSYM=1,1,1,1,1,1,1,1,1,1,1,1,1,1,1,1,1,1,1,1,1,1,1,1,
  ISYM=1,
 &END
 4.739839352467779    1    1    1    1
 -0.4310167945314399    2    1    1    1
 0.06373710322990095    2    1    2    1
 1.045273581843083    2    2    1    1
 -0.01415680425337247    2    2    2    1
 0.7533286119790137    2    2    2    2
 0.01919805140245302    3    1    3    1
 0.02314503800605005    3    2    3    1
 0.1538304152028031    3    2    3    2
 0.8734483099390534    3    3    1    1
 -0.006356073996972024    3    3    2    1
 0.6787773842162765    3    3    2    2
 0.6633441169701143    3    3    3    3
 -0.1404965762373414    4    1    1    1
 0.01707510209026798    4    1    2    1
 -0.01463384777457472    4    1    2    2
 -0.007164586810793838    4    1    3    3
 0.02993816346879188    4    1    4    1
 0.09079074665239566    4    2    1    1
 -0.007866149156667548    4    2    2    1
 -0.0175253544500351    4    2    2    2
 -0.01483973416882889    4    2    3    3
 0.02278404828397033    4    2    4    1
 0.1261855779490262    4    2    4    2
 0.003096440791170081    4    3    3    1
 -0.01770611262807043    4    3    3    2
 0.04051801379578949    4    3    4    3
 0.9826518190433883    4    4    1    1
 -0.0126000620727202    4    4    2    1
 0.6795945338711017    4    4    2    2
 0.6050693025930239    4    4    3    3
 0.009486633800798101    4    4    4    1
 0.07065452721400789    4    4    4    2
 0.7277850866472442    4    4    4    4
 0.03015769790030416    5    1    5    1
 0.02998557153050072    5    2    5    1
 0.1288348032585914    5    2    5    2
 0.03017794343941094    5    3    5    3
 0.00958292423301803    5    4    5    1
 0.03101732527578039    5    4    5    2
 0.04312760328918879    5    4    5    4
 1.038683401735814    5    5    1    1
 -0.01130453468603195    5    5    2    1
 0.7137072870552282    5    5    2    2
 0.6217035756036831    5    5    3    3
 -0.004338926883552648    5    5    4    1
 0.03767998190602908    5    5    4    2
 0.6640358062189189    5    5    4    4
 0.7604351471073254    5    5    5    5
 -0.1454054513199758    6    1    1    1
 0.02290548801547954    6    1    2    1
 -0.001810836443005113    6    1    2    2
 -0.0005207707784570942    6    1    3    3
 -0.0006932480474472241    6    1    4    1
 -0.009218886691663057    6    1    4    2
 -0.007353276510484924    6    1    4    4
 -0.003017297050296853    6    1    5    5
 0.01008368101806968    6    1    6    1
 0.2089379067954323    6    2    1    1
 -0.004545707518791867    6    2    2    1
 0.1086031475769899    6    2    2    2
 0.07858107706699129    6    2    3    3
 -0.009639447106117884    6    2    4    1
 -0.01686209229474975    6    2    4    2
 0.0765217948385967    6    2    4    4
 0.09829966697772291    6    2    5    5
 0.000723292911803748    6    2    6    1
 0.03613493211799441    6    2    6    2
 0.00437503304383764    6    3    3    1
 -0.000518015745609002    6    3    3    2
 0.005160281421275385    6    3    4    3
 0.01878740305240974    6    3    6    3
 -0.1079378008647734    6    4    1    1
 0.0005690800466177719    6    4    2    1
 -0.05865623818640546    6    4    2    2
 -0.03771470183665732    6    4    3    3
 0.003806545264230712    6    4    4    1
 -0.003473428561865987    6    4    4    2
 -0.05752961265754254    6    4    4    4
 -0.05419781923732888    6    4    5    5
 -0.0008701816490218347    6    4    6    1
 -0.01996737288955319    6    4    6    2
 0.01991066512546559    6    4    6    4
 0.007738716776780442    6    5    5    1
 0.02160492627341259    6    5    5    2
 -0.0006488848963472158    6    5    5    4
 0.01127343579528253    6    5    6    5
 0.4091230645512997    6    6    1    1
 -0.001903290968830384    6    6    2    1
 0.3665450421206297    6    6    2    2
 0.3564664153372478    6    6    3    3
 -0.006518107605474057    6    6    4    1
 -0.02948388168245188    6    6    4    2
 0.3397693557878268    6    6    4    4
 0.3465339781173643    6    6    5    5
 0.0009637904911894178    6    6    6    1
 0.0189758927077875    6    6    6    2
 -0.001643092277226546    6    6    6    4
 0.3009843178370267    6    6    6    6
 0.01082565270209758    7    1    3    1
 0.0127045869926026    7    1    3    2
 0.001899792959986891    7    1    4    3
 0.002422116974533705    7    1    6    3
 0.006106791106244528    7    1    7    1
 0.009773085772668659    7    2    3    1
 0.03979351495590262    7    2    3    2
 0.007789124162596703    7    2    4    3
 0.01048148510704998    7    2    6    3
 0.005419766693533828    7    2    7    1
 0.01883420615520782    7    2    7    2
 0.2438756786976287    7    3    1    1
 -0.004128607584588978    7    3    2    1
 0.1245543170722578    7    3    2    2
 0.1063498408956015    7    3    3    3
 -0.0008767884007063162    7    3    4    1
 0.02277184057859425    7    3    4    2
 0.1134153301680094    7    3    4    4
 0.1210300219418909    7    3    5    5
 -0.001339043903633435    7    3    6    1
 0.0322347296644039    7    3    6    2
 -0.02176033996862487    7    3    6    4
 0.01265998634443679    7    3    6    6
 0.05010750943203444    7    3    7    3
 0.003880929324897666    7    4    3    1
 0.02434863894352454    7    4    3    2
 0.006318495741419813    7    4    4    3
 -0.007935361660450399    7    4    6    3
 0.002198066359540124    7    4    7    1
 0.00458068864167956    7    4    7    2
 0.01244471549107848    7    4    7    4
 0.0104891039838936    7    5    5    3
 0.005857103848393138    7    5    7    5
 0.004847887830079153    7    6    3    1
 0.05057306015950828    7    6    3    2
 -0.01688314901766308    7    6    4    3
 -0.0242066483220567    7    6    6    3
 0.002597215564679464    7    6    7    1
 -0.0008689945113714987    7    6    7    2
 0.01826689389128529    7    6    7    4
 0.07394091283691707    7    6    7    6
 0.3985068578582774    7    7    1    1
 -0.002089783455305542    7    7    2    1
 0.3454170437361392    7    7    2    2
 0.3478859854594589    7    7    3    3
 -0.001794634388944576    7    7    4    1
 -0.01013395125369308    7    7    4    2
 0.3263831318639703    7    7    4    4
 0.3285191397673142    7    7    5    5
 -0.0003501661537581943    7    7    6    1
 0.0139098059373594    7    7    6    2
 0.001725970893866266    7    7    6    4
 0.2890119854023128    7    7    6    6
 0.01312481640401248    7    7    7    3
 0.2954518806056468    7    7    7    7
 0.01036688673612843    8    1    3    1
 0.0118642092923331    8    1    3    2
 0.002517742275453436    8    1    4    3
 0.002132609982948555    8    1    6    3
 0.005854731474276234    8    1    7    1
 0.005152506213860043    8    1    7    2
 0.002413860632163924    8    1    7    4
 0.002376205242688634    8    1    7    6
 0.005647029571797458    8    1    8    1
 0.007333612995687682    8    2    3    1
 0.003680219614840947    8    2    3    2
 0.03435470180820203    8    2    4    3
 0.01022476882406975    8    2    6    3
 0.004162231730130228    8    2    7    1
 0.01551408770065484    8    2    7    2
 0.004435053079648445    8    2    7    4
 -0.009345775823455658    8    2    7    6
 0.004260287661164733    8    2    8    1
 0.03918025510460597    8    2    8    2
 0.1667815120928238    8    3    1    1
 -0.004986469425549052    8    3    2    1
 0.03310553731345583    8    3    2    2
 0.01260682045689696    8    3    3    3
 0.005161345490201476    8    3    4    1
 0.07173200504219786    8    3    4    2
 0.05773476925379555    8    3    4    4
 0.06558801090086129    8    3    5    5
 -0.003260485476645085    8    3    6    1
 0.01533628603638154    8    3    6    2
 -0.01962758861316289    8    3    6    4
 -0.01700688917575408    8    3    6    6
 0.04092074145276765    8    3    7    3
 -0.006977178407948914    8    3    7    7
 0.08966158940067954    8    3    8    3
 0.008917935023991432    8    4    3    1
 0.07688982947419538    8    4    3    2
 -0.00645128286230818    8    4    4    3
 -0.01217415755116749    8    4    6    3
 0.004941800256185436    8    4    7    1
 0.01408357903274722    8    4    7    2
 0.02168163211034625    8    4    7    4
 0.03238681194392722    8    4    7    6
 0.004963998066348185    8    4    8    1
 -0.006335332448965812    8    4    8    2
 0.05894934252137878    8    4    8    4
 0.01208079906151626    8    5    5    3
 0.005771575905318237    8    5    7    5
 0.009308969575880772    8    5    8    5
 0.001724165158129041    8    6    3    1
 0.01006325729071235    8    6    3    2
 -0.009319419440309238    8    6    4    3
 0.0001922114015890607    8    6    6    3
 0.0009395100967289272    8    6    7    1
 0.0002983376042113637    8    6    7    2
 0.001627264799620617    8    6    7    4
 -0.00240143532754594    8    6    7    6
 0.0008233341124231787    8    6    8    1
 -0.0107242238316015    8    6    8    2
 0.008191093033305985    8    6    8    4
 0.01387919552130161    8    6    8    6
 0.1602288219995633    8    7    1    1
 -0.002408222009859872    8    7    2    1
 0.1003116182034408    8    7    2    2
 0.09596246535795477    8    7    3    3
 0.0006042292112909765    8    7    4    1
 0.008164469905062312    8    7    4    2
 0.09772720537532248    8    7    4    4
 0.09269287741393005    8    7    5    5
 -0.001089195939128245    8    7    6    1
 0.01440649495674073    8    7    6    2
 -0.00626395838679324    8    7    6    4
 0.03007260250462204    8    7    6    6
 0.02392803984119544    8    7    7    3
 0.02718987737685014    8    7    7    7
 0.004168669347538507    8    7    8    3
 0.02883225761768319    8    7    8    7
 0.5594906405537227    8    8    1    1
 -0.001988835296839392    8    8    2    1
 0.5113319434697001    8    8    2    2
 0.5189395096973336    8    8    3    3
 -0.001469189564160915    8    8    4    1
 -0.02584591419392933    8    8    4    2
 0.4820696727326066    8    8    4    4
 0.4627645340900674    8    8    5    5
 -0.0003801601516327597    8    8    6    1
 0.03006929070479941    8    8    6    2
 -0.009071599865757956    8    8    6    4
 0.3320306771576799    8    8    6    6
 0.04121233037062109    8    8    7    3
 0.3221814511529348    8    8    7    7
 -0.04746381539404074    8    8    8    3
 0.07364523541155985    8    8    8    7
 0.4928390876160387    8    8    8    8
 0.1309890537420022    9    1    1    1
 -0.02145801886769147    9    1    2    1
 -0.0007333221425170769    9    1    2    2
 -0.0001263710238218846    9    1    3    3
 0.006814781817453409    9    1    4    1
 0.01425577194150297    9    1    4    2
 0.009855450563802172    9    1    4    4
 0.001931159118844353    9    1    5    5
 -0.01110083907746304    9    1    6    1
 -0.002652647073860578    9    1    6    2
 0.001674748270893714    9    1    6    4
 -0.002256999168692412    9    1    6    6
 0.00153123714726895    9    1    7    3
 0.0002105625755531032    9    1    7    7
 0.004632512205259887    9    1    8    3
 0.001441043546519245    9    1    8    7
 0.0004489262873783882    9    1    8    8
 0.01348348557678611    9    1    9    1
 -0.1723804852864495    9    2    1    1
 0.003899491804086271    9    2    2    1
 -0.07101720408292032    9    2    2    2
 -0.02325092486097559    9    2    3    3
 0.01202048733349913    9    2    4    1
 0.01565159828072026    9    2    4    2
 -0.04493190676707248    9    2    4    4
 -0.07958497441628465    9    2    5    5
 -0.001659383682512075    9    2    6    1
 -0.03478963577978207    9    2    6    2
 0.02132745163935786    9    2    6    4
 -0.01002811807242892    9    2    6    6
 -0.02468953075304603    9    2    7    3
 2.230760784705896e-05    9    2    7    7
 -0.03064714121843645    9    2    8    3
 -0.002408041886132929    9    2    8    7
 0.01952213037861919    9    2    8    8
 0.004303963443273156    9    2    9    1
 0.05361969867496579    9    2    9    2
 0.0007820434848946311    9    3    3    1
 0.05968719955312728    9    3    3    2
 -0.02356280152512369    9    3    4    3
 -0.02401927933828028    9    3    6    3
 0.0003824817016890431    9    3    7    1
 -0.001149528334638538    9    3    7    2
 0.01655442175095125    9    3    7    4
 0.03767049981480801    9    3    7    6
 0.0005002667673445097    9    3    8    1
 -0.02790403884027963    9    3    8    2
 0.04903413264006345    9    3    8    4
 0.01333068006110284    9    3    8    6
 0.07308625150102471    9    3    9    3
 0.1684027146093522    9    4    1    1
 -0.002968588511770939    9    4    2    1
 0.06616008073885993    9    4    2    2
 0.03011595271012017    9    4    3    3
 -0.003273174059940697    9    4    4    1
 0.008873382477945904    9    4    4    2
 0.07089186770487631    9    4    4    4
 0.06569424299972113    9    4    5    5
 -0.0002105602564838606    9    4    6    1
 0.0264393814238203    9    4    6    2
 -0.02046282026084188    9    4    6    4
 0.006941164740472699    9    4    6    6
 0.02756468805819374    9    4    7    3
 0.002083203805102397    9    4    7    7
 0.03792713161752213    9    4    8    3
 0.005624489182250247    9    4    8    7
 -0.0124920494825562    9    4    8    8
 -0.0004154201551034319    9    4    9    1
 -0.03788007356059586    9    4    9    2
 0.03888171682712634    9    4    9    4
 -0.01111610429460684    9    5    5    1
 -0.04575713540761212    9    5    5    2
 -0.002751615539681032    9    5    5    4
 -0.01066544053760629    9    5    6    5
 0.02256864217204141    9    5    9    5
 -0.1716098105749737    9    6    1    1
 0.002345898710959731    9    6    2    1
 -0.1125719894765261    9    6    2    2
 -0.1022964616843398    9    6    3    3
 0.006878460347951785    9    6    4    1
 0.02047897717670285    9    6    4    2
 -0.08865923316115218    9    6    4    4
 -0.09490611773103484    9    6    5    5
 -0.0009018035648880704    9    6    6    1
 -0.02266717276072124    9    6    6    2
 0.01113101949280576    9    6    6    4
 -0.03592685379299188    9    6    6    6
 -0.01728565884738012    9    6    7    3
 -0.03380157177009525    9    6    7    7
 0.01150603732322906    9    6    8    3
 -0.02397105843131299    9    6    8    7
 -0.07936506230326808    9    6    8    8
 0.002287546024805323    9    6    9    1
 0.00908203364304867    9    6    9    2
 -0.005715799607186539    9    6    9    4
 0.0380754568482843    9    6    9    6
 -0.001920573690263753    9    7    3    1
 -0.01660806002033854    9    7    3    2
 0.01095251082701213    9    7    4    3
 0.00346966867148291    9    7    6    3
 -0.001022421324076115    9    7    7    1
 -0.0003145558873523218    9    7    7    2
 -0.002306152025740388    9    7    7    4
 -0.005058382528989213    9    7    7    6
 -0.000811236603721985    9    7    8    1
 0.009563033675080308    9    7    8    2
 -0.01117694567898687    9    7    8    4
 -0.0102904793746439    9    7    8    6
 -0.01736678336318953    9    7    9    3
 0.01275493607954727    9    7    9    7
 -0.004443831361031192    9    8    3    1
 -0.08204666296942713    9    8    3    2
 0.04423614691679058    9    8    4    3
 0.02867275824501777    9    8    6    3
 -0.002320316944408584    9    8    7    1
 0.001882867407930869    9    8    7    2
 -0.01914933098916163    9    8    7    4
 -0.06141670541475167    9    8    7    6
 -0.001947177147171484    9    8    8    1
 0.04419921104418194    9    8    8    2
 -0.06404962962277641    9    8    8    4
 -0.02052004634040611    9    8    8    6
 -0.08853458577201369    9    8    9    3
 0.02627306945335908    9    8    9    7
 0.1313483244377264    9    8    9    8
 0.5880378168767773    9    9    1    1
 -0.002577782753655191    9    9    2    1
 0.5229552262422754    9    9    2    2
 0.5229401994152104    9    9    3    3
 -0.0115633077606819    9    9    4    1
 -0.06412246505453961    9    9    4    2
 0.4619903764975431    9    9    4    4
 0.4671663045886881    9    9    5    5
 0.002054939023276638    9    9    6    1
 0.04022270811935434    9    9    6    2
 -0.009707424673241379    9    9    6    4
 0.3468209912103467    9    9    6    6
 0.03167943561030119    9    9    7    3
 0.3301417208101592    9    9    7    7
 -0.06816246345726065    9    9    8    3
 0.07031092688958809    9    9    8    7
 0.4889046755293437    9    9    8    8
 -0.004293435825962847    9    9    9    1
 0.009192473522022238    9    9    9    2
 -0.01067593023787466    9    9    9    4
 -0.09497833937220659    9    9    9    6
 0.5277905844003008    9    9    9    9
 0.09298137519432029   10    1    1    1
 -0.009760025965451523   10    1    2    1
 0.01309050769347326   10    1    2    2
 0.006672321027121088   10    1    3    3
 -0.0310136998625557   10    1    4    1
 -0.0240124889444566   10    1    4    2
 -0.01164749055643809   10    1    4    4
 0.00274538762066811   10    1    5    5
 0.004145710768341969   10    1    6    1
 0.009283375174576168   10    1    6    2
 -0.003808829345043599   10    1    6    4
 0.006344462178376314   10    1    6    6
 0.0005596927210154521   10    1    7    3
 0.001582917031881297   10    1    7    7
 -0.005553357090556076   10    1    8    3
 -0.0008591098911010692   10    1    8    7
 0.001175717707847256   10    1    8    8
 -0.01079517655654372   10    1    9    1
 -0.01178515761893402   10    1    9    2
 0.002863561313208443   10    1    9    4
 -0.006689694410036816   10    1    9    6
 0.01127690688138964   10    1    9    9
 0.03342521342921954   10    1   10    1
 -0.02838603850356002   10    2    1    1
 0.004200368264289408   10    2    2    1
 0.005716679783797717   10    2    2    2
 0.01434390603814556   10    2    3    3
 -0.01261327106379399   10    2    4    1
 -0.0290378110592839   10    2    4    2
 -0.02751307349625938   10    2    4    4
 -0.01640167888935992   10    2    5    5
 0.005092324313487215   10    2    6    1
 0.008522018826649772   10    2    6    2
 -0.008976663959385201   10    2    6    4
 0.000129696056824759   10    2    6    6
 0.002129280344921092   10    2    7    3
 -0.002046040355815022   10    2    7    7
 -0.006623862430736346   10    2    8    3
 -0.0040516040829049   10    2    8    7
 0.001769558303676088   10    2    8    8
 -0.007828385269839202   10    2    9    1
 -0.003852697656855255   10    2    9    2
 -0.002820777268484345   10    2    9    4
 -0.008930348245790065   10    2    9    6
 0.0151437201680993   10    2    9    9
 0.01374462652930745   10    2   10    1
 0.03418139665835778   10    2   10    2
 0.001659188078849295   10    3    3    1
 0.03546528269936067   10    3    3    2
 -0.0135068543249774   10    3    4    3
 -0.00180755171812266   10    3    6    3
 0.000789588378030845   10    3    7    1
 0.006720013650495384   10    3    7    2
 -0.0006316163139133791   10    3    7    4
 0.01238038289105533   10    3    7    6
 0.0002652416683826634   10    3    8    1
 -0.004020617358659501   10    3    8    2
 0.01176661080401398   10    3    8    4
 -0.00160959500878577   10    3    8    6
 0.02026023380927663   10    3    9    3
 -0.004660258322327498   10    3    9    7
 -0.02459445411337144   10    3    9    8
 0.02498564003514831   10    3   10    3
 -0.4026978530341104   10    4    1    1
 0.01245626206580254   10    4    2    1
 -0.1452946817687648   10    4    2    2
 -0.1174095143232183   10    4    3    3
 -0.005495638841794975   10    4    4    1
 -0.04372469732923397   10    4    4    2
 -0.1615350769388091   10    4    4    4
 -0.1499985184765721   10    4    5    5
 0.006361891752256767   10    4    6    1
 -0.03753396742379456   10    4    6    2
 0.02333186072124065   10    4    6    4
 -0.02015624396151711   10    4    6    6
 -0.05063616312971482   10    4    7    3
 -0.02872911042079996   10    4    7    7
 -0.04117999605373904   10    4    8    3
 -0.02710269647361455   10    4    8    7
 -0.05134883308540655   10    4    8    8
 -0.00801412859323321   10    4    9    1
 0.02297099420636502   10    4    9    2
 -0.03741627994313865   10    4    9    4
 0.02941456599232334   10    4    9    6
 -0.05653717938967491   10    4    9    9
 0.007529970665121817   10    4   10    1
 0.01153237151477872   10    4   10    2
 0.1133569602094245   10    4   10    4
 -0.006883865368649907   10    5    5    1
 -0.02549964960139193   10    5    5    2
 -0.01483409450433302   10    5    5    4
 -0.001670693855384615   10    5    6    5
 0.005889507358591825   10    5    9    5
 0.01926322738889285   10    5   10    5
 0.08895710167563683   10    6    1    1
 -0.001156550844190655   10    6    2    1
 0.04849082418319271   10    6    2    2
 0.03659816291320813   10    6    3    3
 -0.006082021876632473   10    6    4    1
 -0.02927350077917561   10    6    4    2
 0.02899224562265864   10    6    4    4
 0.03415652285737048   10    6    5    5
 0.001186619137105271   10    6    6    1
 0.01373199974275129   10    6    6    2
 0.001302785376244342   10    6    6    4
 0.02594121199262328   10    6    6    6
 0.005125001248660927   10    6    7    3
 0.01748245184118095   10    6    7    7
 -0.01363332781971884   10    6    8    3
 0.009353112778678844   10    6    8    7
 0.02633491556999274   10    6    8    8
 -0.002408354270875075   10    6    9    1
 -0.01370319917328952   10    6    9    2
 0.009692909477951157   10    6    9    4
 -0.01082561769233103   10    6    9    6
 0.03708673138797389   10    6    9    9
 0.005972744040263713   10    6   10    1
 -0.003740654310839985   10    6   10    2
 -0.01241700694088239   10    6   10    4
 0.02503377275045319   10    6   10    6
 -0.0004311870421623438   10    7    3    1
 0.005837313561008534   10    7    3    2
 -0.008512499078184414   10    7    4    3
 0.0005870975820179071   10    7    6    3
 -0.0003003420128355684   10    7    7    1
 -3.09409133812204e-05   10    7    7    2
 -0.001136665457311086   10    7    7    4
 0.001789791212457625   10    7    7    6
 -0.0005480486351755559   10    7    8    1
 -0.005470332449151898   10    7    8    2
 0.001909224200516524   10    7    8    4
 0.003990809886687064   10    7    8    6
 0.002113073617910465   10    7    9    3
 -0.002643834880503344   10    7    9    7
 -0.006775431547067167   10    7    9    8
 0.002983774610542   10    7   10    3
 0.00516116276903851   10    7   10    7
 -0.001935512351707333   10    8    3    1
 0.0009245857608085273   10    8    3    2
 -0.003430036861907175   10    8    4    3
 -0.006499281621964037   10    8    6    3
 -0.001125896744051608   10    8    7    1
 -0.003284950818500141   10    8    7    2
 0.001919563417007762   10    8    7    4
 0.01188804135391716   10    8    7    6
 -0.001271334199980401   10    8    8    1
 -0.0003444903018443967   10    8    8    2
 0.003886553440756836   10    8    8    4
 -0.002534947458017386   10    8    8    6
 -0.0004831340504168541   10    8    9    3
 -0.0004717393231541308   10    8    9    7
 -0.004227924278502156   10    8    9    8
 0.001889621708370474   10    8   10    3
 0.003852495361317501   10    8   10    7
 0.01536692753529508   10    8   10    8
 -0.1331183145006162   10    9    1    1
 0.004257420890410869   10    9    2    1
 -0.02768459552101937   10    9    2    2
 -0.006045616878598544   10    9    3    3
 0.00265955471540616   10    9    4    1
 -0.01240100884781481   10    9    4    2
 -0.04019986303127089   10    9    4    4
 -0.03173407452877447   10    9    5    5
 0.000928980088402114   10    9    6    1
 -0.01465689592061714   10    9    6    2
 0.01282807333357351   10    9    6    4
 0.0003937034415156256   10    9    6    6
 -0.01470364949381796   10    9    7    3
 0.0001650621261015281   10    9    7    7
 -0.02329775127380946   10    9    8    3
 -0.00505696189691566   10    9    8    7
 0.008735407605905346   10    9    8    8
 -0.0004877331900769857   10    9    9    1
 0.0225407810031411   10    9    9    2
 -0.02164768627640112   10    9    9    4
 0.00488959549208457   10    9    9    6
 0.01330088561124458   10    9    9    9
 -0.002162907748605142   10    9   10    1
 0.001787686497637758   10    9   10    2
 0.02715131110080907   10    9   10    4
 -0.004710144612384113   10    9   10    6
 0.02388229441405588   10    9   10    9
 0.8279338032427045   10   10    1    1
 -0.01302523481572968   10   10    2    1
 0.569901766206779   10   10    2    2
 0.522953131356431   10   10    3    3
 0.002638839109221963   10   10    4    1
 0.02879495382634058   10   10    4    2
 0.5872078001873865   10   10    4    4
 0.5539940096336978   10   10    5    5
 -0.005808271282631296   10   10    6    1
 0.05413283045252609   10   10    6    2
 -0.03903871376220951   10   10    6    4
 0.3260621049478055   10   10    6    6
 0.07915254254974637   10   10    7    3
 0.3063012390801474   10   10    7    7
 0.02997648036255284   10   10    8    3
 0.07519529578435523   10   10    8    7
 0.4324709818801882   10   10    8    8
 0.006951672936290491   10   10    9    1
 -0.03215973408796356   10   10    9    2
 0.04631091787370641   10   10    9    4
 -0.06974526432504269   10   10    9    6
 0.4241074432993804   10   10    9    9
 -0.004721943240015383   10   10   10    1
 -0.01506536406426452   10   10   10    2
 -0.1001607282508897   10   10   10    4
 0.02629902176100865   10   10   10    6
 -0.0244621675817598   10   10   10    9
 0.5185140364537736   10   10   10   10
 -0.03832366139752813   11    1    5    1
 -0.03457822454736302   11    1    5    2
 -0.01120984324713985   11    1    5    4
 -0.009035338239863232   11    1    6    5
 0.01283163082433938   11    1    9    5
 0.00806372603110731   11    1   10    5
 0.04889287005939555   11    1   11    1
 -0.01914557901691689   11    2    5    1
 -0.03969022011858834   11    2    5    2
 -0.01269714632775405   11    2    5    4
 -0.01720728341531651   11    2    6    5
 0.01624167189253537   11    2    9    5
 0.007507480511174778   11    2   10    5
 0.02264047956745589   11    2   11    1
 0.03753446182048277   11    2   11    2
 -0.005428623426094568   11    3    5    3
 -0.006190628696986095   11    3    7    5
 -0.004210122411660318   11    3    8    5
 0.01325026753667116   11    3   11    3
 -0.007040261677678264   11    4    5    1
 -0.01568284175909439   11    4    5    2
 -0.01326350966708231   11    4    5    4
 -0.001243726380658538   11    4    6    5
 -2.115454301409983e-05   11    4    9    5
 0.01682546768629373   11    4   10    5
 0.008404655964595545   11    4   11    1
 0.009643070768844542   11    4   11    2
 0.0187115559595106   11    4   11    4
 -0.5112583865563237   11    5    1    1
 0.01422404237177409   11    5    2    1
 -0.1884996960872445   11    5    2    2
 -0.1420008225285152   11    5    3    3
 0.004447258901191689   11    5    4    1
 -0.02433094383123511   11    5    4    2
 -0.1701265172324374   11    5    4    4
 -0.2058815280800063   11    5    5    5
 0.004314067747556347   11    5    6    1
 -0.05503916071426723   11    5    6    2
 0.02618226794300983   11    5    6    4
 -0.03294356588569916   11    5    6    6
 -0.06082156267659568   11    5    7    3
 -0.03635969186011938   11    5    7    7
 -0.04328163277346404   11    5    8    3
 -0.03496960938165564   11    5    8    7
 -0.06371111061146442   11    5    8    8
 -0.003439051814268112   11    5    9    1
 0.04634166123450945   11    5    9    2
 -0.0423768543504983   11    5    9    4
 0.03988616711038129   11    5    9    6
 -0.071831557882886   11    5    9    9
 -0.00256975972210466   11    5   10    1
 0.007259755496186271   11    5   10    2
 0.1003344534063989   11    5   10    4
 -0.01926245967279634   11    5   10    6
 0.0312392063854601   11    5   10    9
 -0.1180550525125904   11    5   10   10
 0.1597040344294956   11    5   11    5
 -0.009027691393133613   11    6    5    1
 -0.04063058679030486   11    6    5    2
 -0.005859016425245004   11    6    5    4
 -0.001471920239990247   11    6    6    5
 0.01605545216862832   11    6    9    5
 0.005388281960853278   11    6   10    5
 0.01046511268305969   11    6   11    1
 0.005761086740695429   11    6   11    2
 0.001376975918061078   11    6   11    4
 0.0222104683190195   11    6   11    6
 -0.00921852416280777   11    7    5    3
 -0.002333613600945572   11    7    7    5
 -0.003630251000896347   11    7    8    5
 0.002378410340739772   11    7   11    3
 0.005183412387522902   11    7   11    7
 -0.004321106402954785   11    8    5    3
 -0.002741398601320906   11    8    7    5
 8.16351044126263e-05   11    8    8    5
 0.005969044066418733   11    8   11    3
 0.002070875575470525   11    8   11    7
 0.006256820685921044   11    8   11    8
 0.007570183710174815   11    9    5    1
 0.01712700261315124   11    9    5    2
 -0.003049263895297357   11    9    5    4
 0.009308070917723458   11    9    6    5
 -0.007385459652628269   11    9    9    5
 0.001660862926387732   11    9   10    5
 -0.008927431138119734   11    9   11    1
 -0.01538760105785712   11    9   11    2
 -0.0001526455845359904   11    9   11    4
 -0.002573595221182196   11    9   11    6
 0.01174277498269268   11    9   11    9
 0.005289765061323804   11   10    5    1
 0.008755405233432656   11   10    5    2
 0.02554379614972717   11   10    5    4
 -0.0009364704537164593   11   10    6    5
 0.003042120961567856   11   10    9    5
 -0.004190605585473146   11   10   10    5
 -0.006347381056988944   11   10   11    1
 -0.008067497082741164   11   10   11    2
 -0.00634218644293216   11   10   11    4
 0.0007172988145218507   11   10   11    6
 -0.001610216363134927   11   10   11    9
 0.02392202864208554   11   10   11   10
 0.9971319684002332   11   11    1    1
 -0.01804468216757784   11   11    2    1
 0.6171125589318991   11   11    2    2
 0.5480459531129349   11   11    3    3
 -0.005489292746286208   11   11    4    1
 0.03367385819170834   11   11    4    2
 0.5861637866607542   11   11    4    4
 0.6584161579697146   11   11    5    5
 -0.005520009018130892   11   11    6    1
 0.07600873950444216   11   11    6    2
 -0.0443511364208135   11   11    6    4
 0.3287106909426736   11   11    6    6