 &FCI NORB=  12,NELEC=12,MS2=0,
  ORBSYM=1,1,1,1,1,1,1,1,1,1,1,1,
  ISYM=1,
 &END
 0.2856624291996235    1    1    1    1
 -0.04209783463736154    2    1    1    1
 0.1242348497690569    2    1    2    1
 0.2320828634051946    2    2    1    1
 0.0456989994467505    2    2    2    1
 0.2836840960841761    2    2    2    2
 -0.0343462486123428    3    1    1    1
 -0.01140894183642261    3    1    2    1
 0.01813731533137872    3    1    2    2
 0.08970070900180611    3    1    3    1
 -0.01768778148913092    3    2    1    1
 0.05872393973977517    3    2    2    1
 0.02782209070799703    3    2    2    2
 -0.0113673490282894    3    2    3    1
 0.07169381460496994    3    2    3    2
 0.2439461329391037    3    3    1    1
 -0.02148195805354217    3    3    2    1
 0.2127670926849838    3    3    2    2
 -0.01789009524703387    3    3    3    1
 -0.01660992100484077    3    3    3    2
 0.2576462535993376    3    3    3    3
 0.01906903816365217    4    1    1    1
 -0.03178571810802189    4    1    2    1
 -0.0057323096212675    4    1    2    2
 -0.01353175013177962    4    1    3    1
 0.03301806456707929    4    1    3    2
 -0.0008707896530730863    4    1    3    3
 0.0621582635944334    4    1    4    1
 -0.04624005737821259    4    2    1    1
 -0.002971264854273217    4    2    2    1
 -0.01062437333341085    4    2    2    2
 0.0544275237224309    4    2    3    1
 0.01478385002461706    4    2    3    2
 -0.0001322419526840132    4    2    3    3
 0.009763312554033775    4    2    4    1
 0.07535404467917448    4    2    4    2
 -0.02595549804997692    4    3    1    1
 0.08099827503256311    4    3    2    1
 0.03052333988933767    4    3    2    2
 -0.01148012666515778    4    3    3    1
 0.0529515327114838    4    3    3    2
 -0.02116482444740682    4    3    3    3
 -0.001989832633944811    4    3    4    1
 0.003780229121680293    4    3    4    2
 0.09350105923972095    4    3    4    3
 0.2225359158964579    4    4    1    1
 0.01997667197960707    4    4    2    1
 0.2337120437092664    4    4    2    2
 -0.006915203419073883    4    4    3    1
 0.01041887600864634    4    4    3    2
 0.2253720215944827    4    4    3    3
 -0.002871447019963019    4    4    4    1
 -0.003164294232538513    4    4    4    2
 0.01910769832291286    4    4    4    3
 0.2469962751936504    4    4    4    4
 0.02290569705683831    5    1    1    1
 -0.01105612791835445    5    1    2    1
 0.03558278280013816    5    1    2    2
 0.02439876686045214    5    1    3    1
 -0.000221522253558711    5    1    3    2
 -0.0223714588019778    5    1    3    3
 0.008868626580704858    5    1    4    1
 -0.02128813030093864    5    1    4    2
 0.0001326151017523908    5    1    4    3
 -0.003991873749253853    5    1    4    4
 0.05599507442920081    5    1    5    1
 -0.01226004683737578    5    2    1    1
 0.04388923360869825    5    2    2    1
 0.01983606991910453    5    2    2    2
 0.001356980241728322    5    2    3    1
 0.0004990916825831416    5    2    3    2
 -0.001834625828439667    5    2    3    3
 -0.03565847463281598    5    2    4    1
 -0.01376857136840278    5    2    4    2
 -0.01192015462581657    5    2    4    3
 0.0001428508872149447    5    2    4    4
 -0.004753451502677445    5    2    5    1
 0.0578399617624266    5    2    5    2
 0.04746876050234786    5    3    1    1
 0.002690515111088683    5    3    2    1
 0.009042478941974757    5    3    2    2
 -0.05943595495256811    5    3    3    1
 0.001476003595016533    5    3    3    2
 0.01979377411070874    5    3    3    3
 0.007272421358369547    5    3    4    1
 -0.05050671144611014    5    3    4    2
 0.009807955305997068    5    3    4    3
 -0.00806339263900609    5    3    4    4
 0.003229594964893198    5    3    5    1
 -0.003285876870763971    5    3    5    2
 0.07367572909518934    5    3    5    3
 0.02262873350153793    5    4    1    1
 -0.06835200658867899    5    4    2    1
 -0.0293697845837249    5    4    2    2
 0.008095497509054049    5    4    3    1
 -0.05940254971246993    5    4    3    2
 0.01863703404158459    5    4    3    3
 -0.01301521949620087    5    4    4    1
 -0.009468836186260508    5    4    4    2
 -0.06756586069161122    5    4    4    3
 -0.01611580475669862    5    4    4    4
 -0.0001327934171230149    5    4    5    1
 0.001591512207042493    5    4    5    2
 -0.003376354852980549    5    4    5    3
 0.08130552464442146    5    4    5    4
 0.2345760861078548    5    5    1    1
 -0.01149480467955312    5    5    2    1
 0.2260553783896949    5    5    2    2
 0.000425821059345563    5    5    3    1
 -0.007743228030430194    5    5    3    2
 0.2311842110327861    5    5    3    3
 0.0005519372648495023    5    5    4    1
 -0.00380419711680199    5    5    4    2
 -0.009074287529974794    5    5    4    3
 0.2239340681953295    5    5    4    4
 0.004641572348389958    5    5    5    1
 -0.001375863842657086    5    5    5    2
 0.005532797811631164    5    5    5    3
 0.01008903648612925    5    5    5    4
 0.2418349394841685    5    5    5    5
 -0.0006543995746154723    6    1    1    1
 0.01157191044740646    6    1    2    1
 0.003057548122235401    6    1    2    2
 -0.01399537242765777    6    1    3    1
 0.02690373645708073    6    1    3    2
 0.002953678925136215    6    1    3    3
 0.01894735594015899    6    1    4    1
 0.001495000344720531    6    1    4    2
 -0.02168569506584427    6    1    4    3
 -0.001535401899930201    6    1    4    4
 -0.01038606357250209    6    1    5    1
 0.02804822225406117    6    1    5    2
 -0.002560614907654248    6    1    5    3
 -0.005877319305745187    6    1    5    4
 -0.002223078867383245    6    1    5    5
 0.05061861610336095    6    1    6    1
 0.01206106557317986    6    2    1    1
 0.004400451630852058    6    2    2    1
 0.0399617362267618    6    2    2    2
 0.03134904831770918    6    2    3    1
 0.006261842719537923    6    2    3    2
 -0.008444685263974745    6    2    3    3
 0.0007191463235892828    6    2    4    1
 -0.001231911234941597    6    2    4    2
 -0.002967779259458349    6    2    4    3
 -0.01483297968492284    6    2    4    4
 0.03828209790831707    6    2    5    1
 0.01214660548326734    6    2    5    2
 0.009960551264676983    6    2    5    3
 -0.001377250979392235    6    2    5    4
 0.006725386249995685    6    2    5    5
 0.002007265309817495    6    2    6    1
 0.05129381515699493    6    2    6    2
 -0.02113860054378292    6    3    1    1
 0.04225060168063184    6    3    2    1
 0.009641209084953225    6    3    2    2
 0.006095609183641002    6    3    3    1
 -0.01143006169560414    6    3    3    2
 -0.004038996207282342    6    3    3    3
 -0.04646693062392299    6    3    4    1
 -0.007155561817379236    6    3    4    2
 0.01089036646996677    6    3    4    3
 0.003313745310622961    6    3    4    4
 -0.008919125508903926    6    3    5    1
 0.03519851648630973    6    3    5    2
 -0.008018756766266641    6    3    5    3
 0.01923895963078916    6    3    5    4
 -0.0003152376717154917    6    3    5    5
 -0.006257320473395844    6    3    6    1
 0.0002638391681355936    6    3    6    2
 0.05933787336107333    6    3    6    3
 0.04687331857360325    6    4    1    1
 0.001212832487069531    6    4    2    1
 0.005322375538107162    6    4    2    2
 -0.0603130478569767    6    4    3    1
 -0.008161415644058808    6    4    3    2
 0.0219714365885952    6    4    3    3
 -0.001930168283127206    6    4    4    1
 -0.05486738769853274    6    4    4    2
 0.001400140732743716    6    4    4    3
 0.006556736300059126    6    4    4    4
 -0.002631310150697329    6    4    5    1
 0.003044474563468158    6    4    5    2
 0.0571291712015209    6    4    5    3
 0.008336608262969697    6    4    5    4
 -0.005302779255499566    6    4    5    5
 -0.0004168398174184407    6    4    6    1
 -0.008533806455866237    6    4    6    2
 0.002743418802392806    6    4    6    3
 0.06970503673480991    6    4    6    4
 -0.02802079230341555    6    5    1    1
 0.08928271828320725    6    5    2    1
 0.03369469832671639    6    5    2    2
 -0.01384292012951226    6    5    3    1
 0.05760667147597396    6    5    3    2
 -0.01853505396816069    6    5    3    3
 -0.00489619015936383    6    5    4    1
 0.002318863790298402    6    5    4    2
 0.07779828089224487    6    5    4    3
 0.0173076445141635    6    5    4    4
 -0.005391044344116864    6    5    5    1
 0.01166911658412446    6    5    5    2
 0.007386052873957476    6    5    5    3
 -0.06887093997599109    6    5    5    4
 -0.01060651859585875    6    5    5    5
 0.002511014063523683    6    5    6    1
 0.0008412145447751164    6    5    6    2
 0.01425403906677345    6    5    6    3
 0.0003283174626220273    6    5    6    4
 0.09145190639080157    6    5    6    5
 0.2468621806789477    6    6    1    1
 0.005979686918421456    6    6    2    1
 0.2365523853387418    6    6    2    2
 -0.02254491107212941    6    6    3    1
 0.001070889064925893    6    6    3    2
 0.2352637185337885    6    6    3    3
 -0.0002465755466984692    6    6    4    1
 -0.02338936319189797    6    6    4    2
 0.005900599532310289    6    6    4    3
 0.2315136130256418    6    6    4    4
 0.004154884933745986    6    6    5    1
 0.002126820169066682    6    6    5    2
 0.02667281761872953    6    6    5    3
 -0.001775201654451372    6    6    5    4
 0.2315831301762203    6    6    5    5
 -0.0007787220485259098    6    6    6    1
 0.003465286655629561    6    6    6    2
 0.0008164057029906493    6    6    6    3
 0.02727915659379364    6    6    6    4
 0.006127076043447997    6    6    6    5
 0.2514401211379721    6    6    6    6
 -0.0042395249631725    7    1    1    1
 0.002361251074306452    7    1    2    1
 0.002334767317906394    7    1    2    2
 0.01077838497790802    7    1    3    1
 -0.003267487578461081    7    1    3    2
 0.02016857254916135    7    1    3    3
 -0.008148805628268731    7    1    4    1
 0.02369580380473495    7    1    4    2
 0.002450736863283012    7    1    4    3
 -0.01388812606383212    7    1    4    4
 -0.01581814443556406    7    1    5    1
 -0.0004379472041158399    7    1    5    2
 0.01589088925140756    7    1    5    3
 3.236802181124255e-05    7    1    5    4
 0.003278213905515916    7    1    5    5
 -0.006971344573436723    7    1    6    1
 0.01570311117206987    7    1    6    2
 0.001743304906235821    7    1    6    3
 -0.002130864524848634    7    1    6    4
 0.001568107966150236    7    1    6    5
 0.001647827352256881    7    1    6    6
 0.04432589110398656    7    1    7    1
 0.00223754481437733    7    2    1    1
 0.001854142293474437    7    2    2    1
 0.005908661761446169    7    2    2    2
 -0.003830916915607611    7    2    3    1
 0.02791835040100392    7    2    3    2
 0.001042996771088737    7    2    3    3
 0.0279213552062116    7    2    4    1
 0.01155828738287572    7    2    4    2
 -0.002217705618897847    7    2    4    3
 -0.005240213867787068    7    2    4    4
 -0.0007116122999462941    7    2    5    1
 0.000209777093377305    7    2    5    2
 0.001294934439784733    7    2    5    3
 0.008777696372441041    7    2    5    4
 0.0007185491955851899    7    2    5    5
 0.02521302062854721    7    2    6    1
 0.009456818135559064    7    2    6    2
 0.004236086415414421    7    2    6    3
 -0.001017376792117512    7    2    6    4
 0.003018139839843788    7    2    6    5
 0.0004348852392754296    7    2    6    6
 0.001902821107687018    7    2    7    1
 0.04401470188193089    7    2    7    2
 0.01528748028093197    7    3    1    1
 -0.005366729028285542    7    3    2    1
 0.03585531319136889    7    3    2    2
 0.03158601304039783    7    3    3    1
 0.0006907814915976512    7    3    3    2
 -0.00677841514368842    7    3    3    3
 0.003054735866831823    7    3    4    1
 -0.001353276407096455    7    3    4    2
 -0.00363435687089012    7    3    4    3
 0.005412763523516799    7    3    4    4
 0.03579816390866225    7    3    5    1
 0.001656763761616221    7    3    5    2
 -0.008586480431624837    7    3    5    3
 -0.001770233273908332    7    3    5    4
 -0.007825252065686204    7    3    5    5
 -0.002978473671686928    7    3    6    1
 0.02786310677444264    7    3    6    2
 -0.00658738009419934    7    3    6    3
 0.004640439427494718    7    3    6    4
 -0.003432409022122885    7    3    6    5
 0.003704085959794498    7    3    6    6
 -0.005664004480384914    7    3    7    1
 0.0003880200459352181    7    3    7    2
 0.04866115844276068    7    3    7    3
 -0.01424656591983287    7    4    1    1
 0.0453069858864173    7    4    2    1
 0.01938277453508858    7    4    2    2
 0.00348825644216933    7    4    3    1
 -0.001853864390093626    7    4    3    2
 -0.004823691848601093    7    4    3    3
 -0.03777491408618215    7    4    4    1
 -0.01164871650283791    7    4    4    2
 0.01063893052275668    7    4    4    3
 0.006264571170050987    7    4    4    4
 -0.002156811139914144    7    4    5    1
 0.0371095203553207    7    4    5    2
 -0.003298834970634068    7    4    5    3
 -0.001078278004562974    7    4    5    4
 -0.002171172422273565    7    4    5    5
 0.002535460901671852    7    4    6    1
 0.00509537743581659    7    4    6    2
 0.03705218783880024    7    4    6    3
 0.005779984957323878    7    4    6    4
 0.002559981153703711    7    4    6    5
 0.001665875045930546    7    4    6    6
 -0.0004537267307206886    7    4    7    1
 -0.006628901270846498    7    4    7    2
 0.002447907864657715    7    4    7    3
 0.0526606189927528    7    4    7    4
 -0.04319198355055744    7    5    1    1
 -0.001706924263281324    7    5    2    1
 -0.006228061120913066    7    5    2    2
 0.05509902280448627    7    5    3    1
 0.002855619548712105    7    5    3    2
 -0.02065836685072223    7    5    3    3
 -0.002586392355296088    7    5    4    1
 0.04691659173681195    7    5    4    2
 -0.003972036172101082    7    5    4    3
 -0.006416219433655662    7    5    4    4
 0.002245718161205498    7    5    5    1
 -0.0003710770303295341    7    5    5    2
 -0.05148211239738795    7    5    5    3
 -0.002682820427621028    7    5    5    4
 -0.006931863477336056    7    5    5    5
 -0.000468317493430407    7    5    6    1
 0.005823164947838945    7    5    6    2
 0.0008505684921759592    7    5    6    3
 -0.0489080296662    7    5    6    4
 -0.00420845270086242    7    5    6    5
 -0.01388977260168732    7    5    6    6
 0.001441412462217856    7    5    7    1
 0.0007863692949758323    7    5    7    2
 0.009555111908569312    7    5    7    3
 -0.0003562214583666427    7    5    7    4
 0.05951744814453049    7    5    7    5
 -0.0235151182119279    7    6    1    1
 0.06560398298044665    7    6    2    1
 0.02752903106287176    7    6    2    2
 -0.003495150073557747    7    6    3    1
 0.04678763579428363    7    6    3    2
 -0.01752597893383648    7    6    3    3
 0.0006694467743911634    7    6    4    1
 0.006357281995570686    7    6    4    2
 0.05693876744017126    7    6    4    3
 0.01323295405135095    7    6    4    4
 -5.262842938718714e-05    7    6    5    1
 0.00766034112033469    7    6    5    2
 -0.0008195950301499565    7    6    5    3
 -0.05498572073718107    7    6    5    4
 -0.00857863383296199    7    6    5    5
 0.004341597146488171    7    6    6    1
 0.002937957474860209    7    6    6    2
 0.004582122614453942    7    6    6    3
 -0.005470337528617057    7    6    6    4
 0.05733747959161163    7    6    6    5
 0.002006440264844631    7    6    6    6
 -0.001150949114842459    7    6    7    1
 0.001825894848424118    7    6    7    2
 0.001747191310003576    7    6    7    3
 0.01206830338809493    7    6    7    4
 0.004092094098982198    7    6    7    5
 0.06612178322943389    7    6    7    6
 0.2483998718105974    7    7    1    1
 0.006534170867715712    7    7    2    1
 0.2386637931859483    7    7    2    2
 -0.02233125884658167    7    7    3    1
 0.001514090951730652    7    7    3    2
 0.236497210781773    7    7    3    3
 -0.0002385936321834675    7    7    4    1
 -0.02330279677430548    7    7    4    2
 0.006391913745491484    7    7    4    3
 0.2330021000577312    7    7    4    4
 0.004416516493652317    7    7    5    1
 0.002238917418627362    7    7    5    2
 0.02631135323204784    7    7    5    3
 -0.002282211711973202    7    7    5    4
 0.2319890780000012    7    7    5    5
 -0.0008274062512903949    7    7    6    1
 0.003580285962439203    7    7    6    2
 0.0009821746134020433    7    7    6    3
 0.02678840498267741    7    7    6    4
 0.006610362370093728    7    7    6    5
 0.2467886405609032    7    7    6    6
 0.001225252342438251    7    7    7    1
 0.0002820929558131633    7    7    7    2
 0.004176220165806698    7    7    7    3
 0.002339003072141016    7    7    7    4
 -0.01913892516914125    7    7    7    5
 0.002353310905243895    7    7    7    6
 0.2544196764991182    7    7    7    7
 0.0009016103411083709    8    1    1    1
 -0.002072117373212991    8    1    2    1
 0.0002014238334613895    8    1    2    2
 -0.001109493470290599    8    1    3    1
 0.008111430756885621    8    1    3    2
 -0.008850223383109439    8    1    3    3
 0.01173649937816007    8    1    4    1
 -0.0001411172803275252    8    1    4    2
 0.01581804438486149    8    1    4    3
 0.0005983088679324444    8    1    4    4
 0.008845978636824148    8    1    5    1
 -0.01760628412063167    8    1    5    2
 -0.001163885070248611    8    1    5    3
 0.01355144993654241    8    1    5    4
 0.002759383325974714    8    1    5    5
 -0.01113049346085785    8    1    6    1
 -0.0004365753534132227    8    1    6    2
 0.01385529249121228    8    1    6    3
 -0.0003733315203466147    8    1    6    4
 0.002128267625069256    8    1    6    5
 -1.977211796373854e-06    8    1    6    6
 -0.00847138204594566    8    1    7    1
 0.02329713701857041    8    1    7    2
 -0.00230235125725898    8    1    7    3
 -0.003731441466528858    8    1    7    4
 -0.001449190347171997    8    1    7    5
 0.0001450274031244234    8    1    7    6
 0.0002752932378939955    8    1    7    7
 0.03581996050739258    8    1    8    1
 -0.001628177280184075    8    2    1    1
 0.0002363415194063085    8    2    2    1
 0.003614403820363589    8    2    2    2
 0.00911501859194588    8    2    3    1
 0.002329239029052696    8    2    3    2
 0.02146359151582849    8    2    3    3
 -0.0001418571285763964    8    2    4    1
 0.02548607555426282    8    2    4    2
 0.001643851790040604    8    2    4    3
 -4.334527375320069e-05    8    2    4    4
 -0.01789474030647761    8    2    5    1
 -0.003837955766840833    8    2    5    2
 0.003031860578952469    8    2    5    3
 0.002127925945975644    8    2    5    4
 -0.007700510347137851    8    2    5    5
 -0.0007261535542397893    8    2    6    1
 0.002301322996823834    8    2    6    2
 0.001070371694503156    8    2    6    3
 0.008741860740915174    8    2    6    4
 0.0004947805785795898    8    2    6    5
 0.002658812742253751    8    2    6    6
 0.02884140623551608    8    2    7    1
 0.009578991993962003    8    2    7    2
 0.01056903467289614    8    2    7    3
 -0.0004526629198756563    8    2    7    4
 0.003935323293460706    8    2    7    5
 -0.000121834276025887    8    2    7    6
 0.002497413918686414    8    2    7    7
 -0.003143636542083705    8    2    8    1
 0.03817117998876493    8    2    8    2
 -0.002083491112948553    8    3    1    1
 0.01227012087798512    8    3    2    1
 0.002989383834084725    8    3    2    2
 -0.01245101215546962    8    3    3    1
 0.02726955059567019    8    3    3    2
 -0.002772553476704965    8    3    3    3
 0.02027979537976244    8    3    4    1
 0.001955929341650169    8    3    4    2
 -0.002188768271583029    8    3    4    3
 -0.001129955875638685    8    3    4    4
 -0.004378770450422407    8    3    5    1
 0.00973635260515204    8    3    5    2
 0.0008402819861751767    8    3    5    3
 -0.006473682372421703    8    3    5    4
 0.0002677715614062695    8    3    5    5
 0.0296672831314037    8    3    6    1
 0.001258444889651237    8    3    6    2
 -0.004339166351076907    8    3    6    3
 -0.001036929037247899    8    3    6    4
 -0.008071004161736325    8    3    6    5
 -0.000655517868966676    8    3    6    6
 -0.005773039720892242    8    3    7    1
 0.02395526794569921    8    3    7    2
 -0.00595326197305566    8    3    7    3
 0.01724835072261651    8    3    7    4
 0.0006381203813436136    8    3    7    5
 0.007756000824813199    8    3    7    6
 -0.001125940469124133    8    3    7    7
 0.005089561853746961    8    3    8    1
 -0.001742625315190585    8    3    8    2
 0.04198521666791427    8    3    8    3
 0.01986420883064412    8    4    1    1
 -0.0001916225569910592    8    4    2    1
 0.0396468813970692    8    4    2    2
 0.02523285622981668    8    4    3    1
 0.002383843611510465    8    4    3    2
 -0.001960467381208217    8    4    3    3
 0.001325831939557594    8    4    4    1
 -0.005003657357799386    8    4    4    2
 -0.001479142683963679    8    4    4    3
 0.005160805712497757    8    4    4    4
 0.03392496564896948    8    4    5    1
 0.005078905081291022    8    4    5    2
 -0.0009038198647438661    8    4    5    3
 -0.001825049934584557    8    4    5    4
 0.003211962739124523    8    4    5    5
 -0.00188932743068956    8    4    6    1
 0.0311816132568292    8    4    6    2
 -0.002523304536932553    8    4    6    3
 0.0002911695895558564    8    4    6    4
 -0.001584435933862166    8    4    6    5
 -0.002695806252362988    8    4    6    6
 -0.001539461246365621    8    4    7    1
 0.002054141757693409    8    4    7    2
 0.03549516625610835    8    4    7    3
 0.005884429124395277    8    4    7    4
 -0.01026976672216669    8    4    7    5
 0.001539746786434433    8    4    7    6
 0.002971301747546494    8    4    7    7
 0.0001144488901049989    8    4    8    1
 0.002988892301260879    8    4    8    2
 -0.002895346663213624    8    4    8    3
 0.04508038908192284    8    4    8    4
 0.01844887744444573    8    5    1    1
 -0.03492733269705901    8    5    2    1
 -0.00719003632841838    8    5    2    2
 -0.005727464100036724    8    5    3    1
 0.01159379733231263    8    5    3    2
 0.002027235611306859    8    5    3    3
 0.04112839826576492    8    5    4    1
 0.006095075987340997    8    5    4    2
 -0.003026942378643569    8    5    4    3
 -0.001784525585287606    8    5    4    4
 0.009269189210469991    8    5    5    1
 -0.03464720881734519    8    5    5    2
 0.006687613153154324    8    5    5    3
 -0.009668352560627001    8    5    5    4
 0.001388811606443115    8    5    5    5
 0.0007894299339290985    8    5    6    1
 -0.0005564393866821066    8    5    6    2
 -0.04125887847921007    8    5    6    3
 -0.001434779615951187    8    5    6    4
 -0.004681511466474407    8    5    6    5
 -0.0004720038297733285    8    5    6    6
 -0.003373324170333635    8    5    7    1
 0.006134356441695655    8    5    7    2
 0.004612960474842486    8    5    7    3
 -0.03815213965212984    8    5    7    4
 -0.003853822425094338    8    5    7    5
 0.01744844209415592    8    5    7    6
 -0.0003221465408188937    8    5    7    7
 0.002313476252349822    8    5    8    1
 -0.0006248423248990443    8    5    8    2
 -0.002352963220677035    8    5    8    3
 0.003094606943049805    8    5    8    4
 0.05828828960428471    8    5    8    5
 -0.04455075887110946    8    6    1    1
 -0.001806971604317376    8    6    2    1
 -0.007260989467460344    8    6    2    2
 0.05586527424424463    8    6    3    1
 0.002780942506416302    8    6    3    2
 -0.021573434312109    8    6    3    3
 -0.002736861365693403    8    6    4    1
 0.0479351297203978    8    6    4    2
 -0.003924491529164517    8    6    4    3
 -0.00761672512009261    8    6    4    4
 0.001911262537454703    8    6    5    1
 -0.0005314226918584418    8    6    5    2
 -0.05241758473843093    8    6    5    3
 -0.002536551387585099    8    6    5    4
 -0.008485926535866047    8    6    5    5
 -0.0007421985402154196    8    6    6    1
 0.005724759388937592    8    6    6    2
 0.001217475622584045    8    6    6    3
 -0.05030948096690036    8    6    6    4
 -0.003993043058104818    8    6    6    5
 -0.02001331088908331    8    6    6    6
 0.001542357050740647    8    6    7    1
 0.0007735620449689398    8    6    7    2
 0.009279686080253728    8    6    7    3
 -0.0003465230104557522    8    6    7    4
 0.05629346628949537    8    6    7    5
 0.003914899711174114    8    6    7    6
 -0.01619358696654529    8    6    7    7
 -0.001070259182061174    8    6    8    1
 0.003869562447152256    8    6    8    2
 -0.0001137308848675701    8    6    8    3
 -0.006496822565734788    8    6    8    4
 -0.003886635125058037    8    6    8    5
 0.06007326710483036    8    6    8    6
 -0.02866189282871667    8    7    1    1
 0.09095757545781673    8    7    2    1
 0.03459630896174798    8    7    2    2
 -0.01368974655338137    8    7    3    1
 0.05906924984335948    8    7    3    2
 -0.01883920557801783    8    7    3    3
 -0.004561633424005236    8    7    4    1
 0.002811111190300289    8    7    4    2
 0.07894040241760164    8    7    4    3
 0.01773252315975372    8    7    4    4
 -0.005374095411748439    8    7    5    1
 0.0117640116281945    8    7    5    2
 0.007178333837636918    8    7    5    3
 -0.07000670746232468    8    7    5    4
 -0.0102178963506238    8    7    5    5
 0.002792689808384159    8    7    6    1
 0.0009677756327115669    8    7    6    2
 0.01374109172649546    8    7    6    3
 -3.733698619080156e-05    8    7    6    4
 0.08747140350735749    8    7    6    5
 0.006103853818338018    8    7    6    6
 0.001674718741674203    8    7    7    1
 0.002966864768787412    8    7    7    2
 -0.003644109872390673    8    7    7    3
 0.008067295948261277    8    7    7    4
 -0.003537877648800519    8    7    7    5
 0.05851399023955642    8    7    7    6
 0.006697383076496919    8    7    7    7
 0.002301368634295142    8    7    8    1
 0.0006366180962224894    8    7    8    2
 -0.002480162668327093    8    7    8    3
 -0.001462963599181579    8    7    8    4
 -0.005343824629724653    8    7    8    5
 -0.003765441895347105    8    7    8    6
 0.09302493801127498    8    7    8    7
 0.2399442084409502    8    8    1    1
 -0.01148915205759969    8    8    2    1
 0.2320589059913299    8    8    2    2
 0.000969586787054574    8    8    3    1
 -0.007288750221707364    8    8    3    2
 0.2358825670999218    8    8    3    3
 0.001045254128913216    8    8    4    1
 -0.004098346040672746    8    8    4    2
 -0.00917208875208797    8    8    4    3
 0.2290802076474219    8    8    4    4
 0.005464991641679792    8    8    5    1
 -0.001273404392427629    8    8    5    2
 0.005909771925772186    8    8    5    3
 0.00935425595284432    8    8    5    4
 0.2417386938351266    8    8    5    5
 -0.001681481062812623    8    8    6    1
 0.006960850163455535    8    8    6    2
 -0.001429760768128764    8    8    6    3
 -0.0003677577759248728    8    8    6    4
 -0.01006868836165289    8    8    6    5
 0.2356959143056328    8    8    6    6
 0.003230627334568487    8    8    7    1
 0.00085917891654823    8    8    7    2
 -0.001721346467160897    8    8    7    3
 -0.002046959226460917    8    8    7    4
 -0.008275295436160519    8    8    7    5
 -0.008217222242084586    8    8    7    6
 0.2388450581620642    8    8    7    7
 0.001471367401592165    8    8    8    1
 -0.003400669824282724    8    8    8    2
 -0.0006066105819612158    8    8    8    3
 0.006646537764857942    8    8    8    4
 0.001983277531028841    8    8    8    5
 -0.008561599933483332    8    8    8    6
 -0.01045472197358218    8    8    8    7
 0.2515844620631436    8    8    8    8
 0.001137470040036668    9    1    1    1
 -0.001077902040619492    9    1    2    1
 0.0003198637063459696    9    1    2    2
 -0.0002575270874943303    9    1    3    1
 0.0007038150714797488    9    1    3    2
 0.006086778076800915    9    1    3    3
 0.00136608506259586    9    1    4    1
 0.004006455567066807    9    1    4    2
 -0.003543481840087975    9    1    4    3
 0.01559576231030887    9    1    4    4
 -0.007573043178755659    9    1    5    1
 0.0003936874747163745    9    1    5    2
 -0.01397887177704218    9    1    5    3
 -0.0007633671329255021    9    1    5    4
 -0.01271739507462317    9    1    5    5
 0.005802793634763949    9    1    6    1
 -0.01607963184110157    9    1    6    2
 -0.002140869557629797    9    1    6    3
 0.01190985882886603    9    1    6    4
 -0.0002773034628695852    9    1    6    5
 0.0002568577755249721    9    1    6    6
 -0.01159373793926796    9    1    7    1
 -0.0007742043249724529    9    1    7    2
 0.01728261249840322    9    1    7    3
 0.0008603451533778805    9    1    7    4
 0.00206743925949338    9    1    7    5
 0.0005724956042179568    9    1    7    6
 0.001186424562272865    9    1    7    7
 -0.004556836209221344    9    1    8    1
 0.01339880373608794    9    1    8    2
 -0.001498787465112178    9    1    8    3
 0.005009764408837054    9    1    8    4
 0.0009386988565820672    9    1    8    5
 0.002433490044832092    9    1    8    6
 -0.0007016846342628468    9    1    8    7
 -0.007979429332845595    9    1    8    8
 0.02909666262379769    9    1    9    1
 -0.0009484119285873711    9    2    1    1
 0.000728803448968519    9    2    2    1
 1.873823719252892e-05    9    2    2    2
 0.0007889404016135687    9    2    3    1
 0.002541662071220526    9    2    3    2
 -0.000805408458241822    9    2    3    3
 0.003428674238619655    9    2    4    1
 0.005019086606358998    9    2    4    2
 0.0195645988615454    9    2    4    3