 &FCI NORB=  19,NELEC= 4,MS2=0,
  ORBSYM=1,1,1,1,1,1,1,1,1,1,1,1,1,1,1,1,1,1,1,
  ISYM=1,
 &END
 1.648564574982705    1    1    1    1
 -0.08772682472227264    2    1    1    1
 0.008390367789098017    2    1    2    1
 0.3386202472177672    2    2    1    1
 0.006079019815788281    2    2    2    1
 0.4769562368826101    2    2    2    2
 -0.06154002762558314    3    1    1    1
 0.004237851337568571    3    1    2    1
 -0.005644420258762829    3    1    2    2
 0.004343649332408135    3    1    3    1
 0.004413812981501944    3    2    1    1
 -0.001701776783213111    3    2    2    1
 -0.04016093176894685    3    2    2    2
 0.0003865777387409168    3    2    3    1
 0.007464973831451095    3    2    3    2
 0.2319322935809766    3    3    1    1
 -0.002955391396059635    3    3    2    1
 0.1573871322137547    3    3    2    2
 0.001298342877340322    3    3    3    1
 0.006229146682189966    3    3    3    2
 0.2062486400548596    3    3    3    3
 0.0002830908837709226    4    1    4    1
 0.0004897047176770172    4    2    4    1
 0.005671493542715397    4    2    4    2
 0.0007565769673268612    4    3    4    1
 0.006524517574144644    4    3    4    2
 0.02175140353425412    4    3    4    3
 0.1751205690734299    4    4    1    1
 -0.0003418066650188571    4    4    2    1
 0.1561648464470539    4    4    2    2
 0.0001057420369741422    4    4    3    1
 0.001975506842348199    4    4    3    2
 0.1476463509642266    4    4    3    3
 0.1477506977228177    4    4    4    4
 0.0002830908837709216    5    1    5    1
 0.000489704717677016    5    2    5    1
 0.005671493542715387    5    2    5    2
 0.0007565769673268599    5    3    5    1
 0.006524517574144635    5    3    5    2
 0.02175140353425411    5    3    5    3
 0.008747800940355951    5    4    5    4
 0.1751205690734297    5    5    1    1
 -0.0003418066650188561    5    5    2    1
 0.1561648464470538    5    5    2    2
 0.0001057420369741445    5    5    3    1
 0.001975506842348202    5    5    3    2
 0.1476463509642265    5    5    3    3
 0.1302550958421057    5    5    4    4
 0.1477506977228174    5    5    5    5
 0.01679164785629477    6    1    1    1
 -0.0002247260272407515    6    1    2    1
 0.006113523058135886    6    1    2    2
 -0.001802630696686365    6    1    3    1
 -0.000804863736625957    6    1    3    2
 -0.001692631287456847    6    1    3    3
 -0.0001014202679492482    6    1    4    4
 -0.0001014202679492484    6    1    5    5
 0.001316070959041123    6    1    6    1
 0.03523568544890298    6    2    1    1
 0.001975922178550514    6    2    2    1
 0.07543428748876044    6    2    2    2
 -0.001336206621183091    6    2    3    1
 -0.01033913702175589    6    2    3    2
 0.005035138666908406    6    2    3    3
 0.002700334456655803    6    2    4    4
 0.002700334456655797    6    2    5    5
 0.001632978024852977    6    2    6    1
 0.0211284828230594    6    2    6    2
 -0.0501527875367273    6    3    1    1
 0.0006651241639951325    6    3    2    1
 -0.0332498887117753    6    3    2    2
 -2.962222173506132e-05    6    3    3    1
 0.0004142769891593023    6    3    3    2
 -0.01407234111754184    6    3    3    3
 -0.01332276087228102    6    3    4    4
 -0.01332276087228101    6    3    5    5
 0.0001887050638173703    6    3    6    1
 -0.004310585960562607    6    3    6    2
 0.01063670775627069    6    3    6    3
 -0.0004273560452171778    6    4    4    1
 -0.006489866359531096    6    4    4    2
 -0.008146019232830383    6    4    4    3
 0.01284929415539688    6    4    6    4
 -0.0004273560452171768    6    5    5    1
 -0.006489866359531088    6    5    5    2
 -0.00814601923283037    6    5    5    3
 0.01284929415539687    6    5    6    5
 0.1746332438713138    6    6    1    1
 0.0004947304488920849    6    6    2    1
 0.188013607003384    6    6    2    2
 -0.0006724676791520492    6    6    3    1
 -0.006499633920316606    6    6    3    2
 0.1283036011671556    6    6    3    3
 0.1260113971971462    6    6    4    4
 0.1260113971971461    6    6    5    5
 0.0006796669745524506    6    6    6    1
 0.009153385248089407    6    6    6    2
 -0.0102630242580711    6    6    6    3
 0.139825018685929    6    6    6    6
 0.0901250428242035    7    1    1    1
 -0.005324994832439271    7    1    2    1
 0.00914667303792136    7    1    2    2
 -0.00633596076099149    7    1    3    1
 -0.0006607902245354733    7    1    3    2
 -0.002096520207704506    7    1    3    3
 -2.558427359349692e-05    7    1    4    4
 -2.558427359349752e-05    7    1    5    5
 0.003012579135858299    7    1    6    1
 0.002191675629162359    7    1    6    2
 7.406383754902577e-05    7    1    6    3
 0.00112148432245029    7    1    6    6
 0.009881628376724187    7    1    7    1
 -0.03207374482214218    7    2    1    1
 0.0006358840661373656    7    2    2    1
 -0.01505049109013987    7    2    2    2
 0.0003668315796659199    7    2    3    1
 -5.159857976340716e-05    7    2    3    2
 -0.009762310546786305    7    2    3    3
 -0.003777514761625527    7    2    4    4
 -0.003777514761625522    7    2    5    5
 -7.341926760742021e-05    7    2    6    1
 -0.003643220973285571    7    2    6    2
 0.003043152147476057    7    2    6    3
 -0.002207159615723695    7    2    6    6
 -0.000502953106364958    7    2    7    1
 0.002806945028112597    7    2    7    2
 -0.0990093438883882    7    3    1    1
 0.002976855713285746    7    3    2    1
 -0.03288429660751386    7    3    2    2
 -0.0007922750358406396    7    3    3    1
 -0.00243889338464133    7    3    3    2
 -0.03792939509302926    7    3    3    3
 -0.01560908988218883    7    3    4    4
 -0.01560908988218881    7    3    5    5
 0.001425376322740688    7    3    6    1
 -0.002346040381826215    7    3    6    2
 0.01467134791134389    7    3    6    3
 -0.01594723760419983    7    3    6    6
 0.001436377334399824    7    3    7    1
 0.006359615875941256    7    3    7    2
 0.03518189283579255    7    3    7    3
 -0.0002463663211697672    7    4    4    1
 0.003465795511752774    7    4    4    2
 0.007682602671456225    7    4    4    3
 -0.006686794653052022    7    4    6    4
 0.01198625985503565    7    4    7    4
 -0.0002463663211697665    7    5    5    1
 0.003465795511752772    7    5    5    2
 0.007682602671456225    7    5    5    3
 -0.006686794653052019    7    5    6    5
 0.01198625985503564    7    5    7    5
 0.04693565597443232    7    6    1    1
 -0.002245705017669351    7    6    2    1
 -0.008597691240810787    7    6    2    2
 0.0008399161645435108    7    6    3    1
 0.004674779349605945    7    6    3    2
 0.03142153720293656    7    6    3    3
 0.003943063610293071    7    6    4    4
 0.003943063610293066    7    6    5    5
 -0.001255904881366757    7    6    6    1
 0.0004783212756120185    7    6    6    2
 -0.0018635405807439    7    6    6    3
 -0.005155862884140279    7    6    6    6
 -0.001426443154986748    7    6    7    1
 -0.004715175519022063    7    6    7    2
 -0.01393985067753815    7    6    7    3
 0.02002951129572899    7    6    7    6
 0.292687075044839    7    7    1    1
 -0.004909536906821116    7    7    2    1
 0.1756519889645615    7    7    2    2
 0.001259708198071378    7    7    3    1
 0.005777331957218037    7    7    3    2
 0.1965159882878192    7    7    3    3
 0.1495310020776139    7    7    4    4
 0.1495310020776137    7    7    5    5
 -0.002280078545505878    7    7    6    1
 0.005591734322774169    7    7    6    2
 -0.02366563739846951    7    7    6    3
 0.1364061249689472    7    7    6    6
 -0.002178307866136649    7    7    7    1
 -0.01151442058274641    7    7    7    2
 -0.0523777240163237    7    7    7    3
 0.02988308182686743    7    7    7    6
 0.2119459436349061    7    7    7    7
 -0.0002857075499622677    8    1    4    1
 -0.0004086165968304676    8    1    4    2
 -0.0005999757667022438    8    1    4    3
 0.001522569961761219    8    1    5    1
 0.002177567083170643    8    1    5    2
 0.003197343158366465    8    1    5    3
 0.0003467046684287826    8    1    6    4
 -0.001847630956275983    8    1    6    5
 0.0002009835537043525    8    1    7    4
 -0.001071065576386354    8    1    7    5
 0.008731092863508186    8    1    8    1
 -0.0001857985623568689    8    2    4    1
 -0.001219184702455307    8    2    4    2
 -0.001255255977367484    8    2    4    3
 0.0009901429276907383    8    2    5    1
 0.006497182192218569    8    2    5    2
 0.006689410362846117    8    2    5    3
 0.0009147207920375877    8    2    6    4
 -0.004874657325432264    8    2    6    5
 -2.721544022423881e-05    8    2    7    4
 0.0001450343604395895    8    2    7    5
 0.004700977572499602    8    2    8    1
 0.01109426138345925    8    2    8    2
 -0.0002004739592423677    8    3    4    1
 -0.0007985203204481884    8    3    4    2
 -0.001909287526037182    8    3    4    3
 0.001068349886091862    8    3    5    1
 0.004255411010072823    8    3    5    2
 0.0101748232970867    8    3    5    3
 0.001011652937445965    8    3    6    4
 -0.00539122040872272    8    3    6    5
 0.0007362421577523009    8    3    7    4
 -0.003923523176492779    8    3    7    5
 0.004815047308468268    8    3    8    1
 0.007242097038262454    8    3    8    2
 0.01409906579543202    8    3    8    3
 -0.01491267566479522    8    4    1    1
 0.0001616064014187564    8    4    2    1
 -0.00799719582927725    8    4    2    2
 -2.287816029814163e-07    8    4    3    1
 -0.0002867705903351665    8    4    3    2
 -0.006329537909796599    8    4    3    3
 -0.003655531263183676    8    4    4    4
 0.0001322967293425439    8    4    5    4
 -0.003605880770453928    8    4    5    5
 3.791947155705388e-05    8    4    6    1
 -0.000822903938815105    8    4    6    2
 0.001880875216256096    8    4    6    3
 -0.002925796511541658    8    4    6    6
 -2.635141636814722e-05    8    4    7    1
 0.001086479366236738    8    4    7    2
 0.003712151417979119    8    4    7    3
 -0.001836167165718298    8    4    7    6
 -0.007236428072763883    8    4    7    7
 0.003666895988824659    8    4    8    4
 0.0794714456082924    8    5    1    1
 -0.0008612199868747694    8    5    2    1
 0.04261802024338444    8    5    2    2
 1.219204730670533e-06    8    5    3    1
 0.001528235032005726    8    5    3    2
 0.03373087023621892    8    5    3    3
 0.01921617313756906    8    5    4    4
 -2.482524636488297e-05    8    5    5    4
 0.01948076659625411    8    5    5    5
 -0.0002020774332573754    8    5    6    1
 0.004385354250597669    8    5    6    2
 -0.01002341067455479    8    5    6    3
 0.01559192217107126    8    5    6    6
 0.0001404298731947873    8    5    7    1
 -0.00578997946439958    8    5    7    2
 -0.01978250222393768    8    5    7    3
 0.009785156085879257    8    5    7    6
 0.03856379719573804    8    5    7    7
 -0.003617693790529903    8    5    8    4
 0.02226716831737362    8    5    8    5
 8.919237673255644e-05    8    6    4    1
 0.0001662143478954752    8    6    4    2
 0.001031326014044773    8    6    4    3
 -0.0004753169233680254    8    6    5    1
 -0.0008857762889108344    8    6    5    2
 -0.005496060604540895    8    6    5    3
 0.0001706033819053473    8    6    6    4
 -0.0009091659800319011    8    6    6    5
 -0.0005316674809863817    8    6    7    4
 0.002833320072577819    8    6    7    5
 -0.00210428295199123    8    6    8    1
 -0.002628175129754401    8    6    8    2
 -0.006305313487601887    8    6    8    3
 0.005336234967119674    8    6    8    6
 0.0002944535903320933    8    7    4    1
 0.001366663668847722    8    7    4    2
 0.003399187828484512    8    7    4    3
 -0.001569178664797618    8    7    5    1
 -0.007283115375469573    8    7    5    2
 -0.01811468154313185    8    7    5    3
 -0.001765141085737995    8    7    6    4
 0.009406649546958825    8    7    6    5
 0.0002809974670346872    8    7    7    4
 -0.001497469362271021    8    7    7    5
 -0.007197706581073144    8    7    8    1
 -0.01053805030451204    8    7    8    2
 -0.01621067699539522    8    7    8    3
 0.007471893082983282    8    7    8    6
 0.02623495411616564    8    7    8    7
 0.3464427122032843    8    8    1    1
 -0.003274608449900357    8    8    2    1
 0.2209442666286868    8    8    2    2
 -0.0008524794774805843    8    8    3    1
 0.003558088133685283    8    8    3    2
 0.1879725369852498    8    8    3    3
 0.1509799037585732    8    8    4    4
 -0.002313769919118669    8    8    5    4
 0.1628760876517125    8    8    5    5
 -0.0001871325836567368    8    8    6    1
 0.01257525093352905    8    8    6    2
 -0.02899177366665259    8    8    6    3
 0.1442248332677248    8    8    6    6
 0.001866179450657951    8    8    7    1
 -0.0151627443435297    8    8    7    2
 -0.05135037890622427    8    8    7    3
 0.0224886903765692    8    8    7    6
 0.2078075056748831    8    8    7    7
 -0.009805391366891205    8    8    8    4
 0.05225411215248971    8    8    8    5
 0.2475078754692537    8    8    8    8
 0.00152256996176122    9    1    4    1
 0.002177567083170644    9    1    4    2
 0.003197343158366464    9    1    4    3
 0.0002857075499622618    9    1    5    1
 0.0004086165968304635    9    1    5    2
 0.000599975766702241    9    1    5    3
 -0.001847630956275982    9    1    6    4
 -0.0003467046684287815    9    1    6    5
 -0.001071065576386355    9    1    7    4
 -0.0002009835537043476    9    1    7    5
 0.008731092863508177    9    1    9    1
 0.0009901429276907392    9    2    4    1
 0.006497182192218576    9    2    4    2
 0.006689410362846116    9    2    4    3
 0.0001857985623568657    9    2    5    1
 0.001219184702455295    9    2    5    2
 0.001255255977367479    9    2    5    3
 -0.004874657325432266    9    2    6    4
 -0.000914720792037586    9    2    6    5
 0.0001450343604395875    9    2    7    4
 2.721544022424639e-05    9    2    7    5
 0.004700977572499597    9    2    9    1
 0.01109426138345925    9    2    9    2
 0.001068349886091862    9    3    4    1
 0.004255411010072822    9    3    4    2
 0.01017482329708668    9    3    4    3
 0.000200473959242365    9    3    5    1
 0.0007985203204481862    9    3    5    2
 0.001909287526037185    9    3    5    3
 -0.005391220408722717    9    3    6    4
 -0.001011652937445964    9    3    6    5
 -0.003923523176492786    9    3    7    4
 -0.0007362421577522889    9    3    7    5
 0.00481504730846826    9    3    9    1
 0.007242097038262446    9    3    9    2
 0.014099065795432    9    3    9    3
 0.07947144560829242    9    4    1    1
 -0.000861219986874768    9    4    2    1
 0.04261802024338445    9    4    2    2
 1.219204730669575e-06    9    4    3    1
 0.001528235032005718    9    4    3    2
 0.03373087023621889    9    4    3    3
 0.01948076659625412    9    4    4    4
 2.4825246364861e-05    9    4    5    4
 0.01921617313756903    9    4    5    5
 -0.0002020774332573761    9    4    6    1
 0.00438535425059767    9    4    6    2
 -0.01002341067455478    9    4    6    3
 0.01559192217107124    9    4    6    6
 0.0001404298731947846    9    4    7    1
 -0.005789979464399583    9    4    7    2
 -0.01978250222393768    9    4    7    3
 0.009785156085879243    9    4    7    6
 0.03856379719573804    9    4    7    7
 -0.003617693790529911    9    4    8    4
 0.01629108397269296    9    4    8    5
 0.04482357429093731    9    4    8    8
 0.02226716831737362    9    4    9    4
 0.01491267566479507    9    5    1    1
 -0.0001616064014187544    9    5    2    1
 0.007997195829277166    9    5    2    2
 2.287816029836779e-07    9    5    3    1
 0.0002867705903351639    9    5    3    2
 0.006329537909796555    9    5    3    3
 0.003605880770453889    9    5    4    4
 0.0001322967293425336    9    5    5    4
 0.003655531263183638    9    5    5    5
 -3.791947155705485e-05    9    5    6    1
 0.0008229039388150992    9    5    6    2
 -0.00188087521625608    9    5    6    3
 0.002925796511541626    9    5    6    6
 2.635141636814597e-05    9    5    7    1
 -0.001086479366236736    9    5    7    2
 -0.003712151417979087    9    5    7    3
 0.001836167165718288    9    5    7    6
 0.007236428072763868    9    5    7    7
 0.002309188355856002    9    5    8    4
 0.003617693790529891    9    5    8    5
 0.008411064130282355    9    5    8    8
 0.003617693790529882    9    5    9    4
 0.003666895988824644    9    5    9    5
 -0.0004753169233680256    9    6    4    1
 -0.000885776288910834    9    6    4    2
 -0.005496060604540892    9    6    4    3
 -8.919237673255537e-05    9    6    5    1
 -0.0001662143478954765    9    6    5    2
 -0.001031326014044772    9    6    5    3
 -0.0009091659800319003    9    6    6    4
 -0.0001706033819053462    9    6    6    5
 0.002833320072577819    9    6    7    4
 0.0005316674809863752    9    6    7    5
 -0.002104282951991226    9    6    9    1
 -0.002628175129754398    9    6    9    2
 -0.006305313487601879    9    6    9    3
 0.005336234967119669    9    6    9    6
 -0.001569178664797619    9    7    4    1
 -0.007283115375469572    9    7    4    2
 -0.01811468154313184    9    7    4    3
 -0.0002944535903320885    9    7    5    1
 -0.00136666366884771    9    7    5    2
 -0.003399187828484499    9    7    5    3
 0.009406649546958818    9    7    6    4
 0.001765141085737987    9    7    6    5
 -0.001497469362271011    9    7    7    4
 -0.0002809974670346989    9    7    7    5
 -0.007197706581073134    9    7    9    1
 -0.01053805030451202    9    7    9    2
 -0.01621067699539521    9    7    9    3
 0.007471893082983288    9    7    9    6
 0.02623495411616555    9    7    9    7
 -0.002313769919118676    9    8    4    4
 0.005948091946569638    9    8    5    4
 0.002313769919118658    9    8    5    5
 0.003715268930776193    9    8    8    4
 0.0006971636183043578    9    8    8    5
 -0.0006971636183043744    9    8    9    4
 0.003715268930776186    9    8    9    5
 0.01245911225543251    9    8    9    8
 0.3464427122032839    9    9    1    1
 -0.003274608449900352    9    9    2    1
 0.2209442666286866    9    9    2    2
 -0.0008524794774805798    9    9    3    1
 0.003558088133685262    9    9    3    2
 0.1879725369852495    9    9    3    3
 0.1628760876517124    9    9    4    4
 0.002313769919118603    9    9    5    4
 0.150979903758573    9    9    5    5
 -0.0001871325836567302    9    9    6    1
 0.01257525093352908    9    9    6    2
 -0.02899177366665256    9    9    6    3
 0.1442248332677247    9    9    6    6
 0.001866179450657977    9    9    7    1
 -0.01516274434352974    9    9    7    2
 -0.05135037890622421    9    9    7    3
 0.0224886903765691    9    9    7    6
 0.2078075056748829    9    9    7    7
 -0.008411064130282453    9    9    8    4
 0.04482357429093724    9    9    8    5
 0.2225896509583885    9    9    8    8
 0.0522541121524897    9    9    9    4
 0.009805391366891045    9    9    9    5
 0.2475078754692533    9    9    9    9
 -0.04000110094252166   10    1    1    1
 0.004713779877357955   10    1    2    1
 0.004248468349376885   10    1    2    2
 0.00102316250930529   10    1    3    1
 -0.0007762796543381138   10    1    3    2
 -0.003039509739729475   10    1    3    3
 -9.73996421938699e-06   10    1    4    4
 -9.739964219387337e-06   10    1    5    5
 0.0009174604218227921   10    1    6    1
 0.001064666618275792   10    1    6    2
 0.0006967972261083566   10    1    6    3
 0.0001685819724239828   10    1    6    6
 -0.0007299309753010037   10    1    7    1
 0.0001875337828735042   10    1    7    2
 0.002987025386021461   10    1    7    3
 -0.002240258001288229   10    1    7    6
 -0.00479368008350328   10    1    7    7
 5.40930879537086e-05   10    1    8    4
 -0.0002882685839702302   10    1    8    5
 -0.001045626210819829   10    1    8    8
 -0.0002882685839702292   10    1    9    4
 -5.409308795370881e-05   10    1    9    5
 -0.001045626210819824   10    1    9    9
 0.003980470619475864   10    1   10    1
 0.04282631685495587   10    2    1    1
 -0.001748558023030211   10    2    2    1
 -0.05252084698128909   10    2    2    2
 -0.0001996595095688   10    2    3    1
 0.01357430807092706   10    2    3    2
 0.01181785707303581   10    2    3    3
 0.007418614346767478   10    2    4    4
 0.00741861434676747   10    2    5    5
 -0.0002944696759177682   10    2    6    1
 -0.01504023603417503   10    2    6    2
 -0.001778822378875001   10    2    6    3
 -0.007671877696098929   10    2    6    6
 0.0006303367381631977   10    2    7    1
 -0.002360525709510417   10    2    7    2
 -0.006367120477377568   10    2    7    3
 0.008133838015051419   10    2    7    6
 0.01495499324179752   10    2    7    7
 -0.001505262836744603   10    2    8    4
 0.008021727042514311   10    2    8    5
 0.02190098299256812   10    2    8    8
 0.008021727042514307   10    2    9    4
 0.001505262836744592   10    2    9    5
 0.02190098299256809   10    2    9    9
 0.0001175594592985069   10    2   10    1
 0.03399918761570835   10    2   10    2
 0.0007423055614647768   10    3    1    1
 0.001588561723383036   10    3    2    1
 0.03243759041689862   10    3    2    2
 -0.001350937603011219   10    3    3    1
 -0.00455457242546646   10    3    3    2
 -0.0248642934009472   10    3    3    3
 0.001739360048121877   10    3    4    4
 0.001739360048121872   10    3    5    5
 0.001406010796070346   10    3    6    1
 0.004736093686913926   10    3    6    2
 -0.002118806907286306   10    3    6    3
 0.006103079092692598   10    3    6    6
 0.002280677709728569   10    3    7    1
 0.0005072019533832757   10    3    7    2
 0.01006838923023328   10    3    7    3
 -0.01312730141023698   10    3    7    6
 -0.01799748831344523   10    3    7    7
 -6.301254653610016e-05   10    3    8    4
 0.0003358014535583914   10    3    8    5
 0.002121093444637441   10    3    8    8
 0.0003358014535583994   10    3    9    4
 6.301254653609379e-05   10    3    9    5
 0.002121093444637453   10    3    9    9
 0.002520226605459547   10    3   10    1
 -0.004035748891757431   10    3   10    2
 0.02354010740639396   10    3   10    3
 0.0005663032970206669   10    4    4    1
 0.004304792412200196   10    4    4    2
 0.005748618954638281   10    4    4    3
 -0.004459367678726033   10    4    6    4
 0.0008441513637972545   10    4    7    4
 -0.0004708255592837621   10    4    8    1
 -0.001209239283303333   10    4    8    2
 -0.000994784363888467   10    4    8    3
 0.0005573991090127821   10    4    8    6
 0.001254415079507288   10    4    8    7
 0.002509086140319212   10    4    9    1
 0.006444181855125914   10    4    9    2
 0.005301325747556765   10    4    9    3
 -0.002970447019014436   10    4    9    6
 -0.006684929116820148   10    4    9    7
 0.007264427687273125   10    4   10    4
 0.0005663032970206656   10    5    5    1
 0.004304792412200189   10    5    5    2
 0.005748618954638271   10    5    5    3
 -0.004459367678726026   10    5    6    5
 0.0008441513637972539   10    5    7    5
 0.00250908614031921   10    5    8    1
 0.00644418185512591   10    5    8    2
 0.005301325747556763   10    5    8    3
 -0.002970447019014436   10    5    8    6
 -0.00668492911682015   10    5    8    7
 0.0004708255592837568   10    5    9    1
 0.001209239283303321   10    5    9    2
 0.0009947843638884596   10    5    9    3
 -0.0005573991090127794   10    5    9    6
 -0.001254415079507272   10    5    9    7
 0.00726442768727311   10    5   10    5
 -0.008204546116126142   10    6    1    1
 -0.0008093551215757689   10    6    2    1
 -0.02642584216669404   10    6    2    2
 0.0002641400195855073   10    6    3    1
 0.001640965362898607   10    6    3    2
 -0.007028028555071431   10    6    3    3
 -0.008081801467895529   10    6    4    4
 -0.008081801467895519   10    6    5    5
 -0.0004341172200300877   10    6    6    1
 -0.005593654091857377   10    6    6    2
 0.002518907341007752   10    6    6    3
 -0.003095893932953919   10    6    6    6
 -0.0004644904708138802   10    6    7    1
 0.001693161917879629   10    6    7    2
 -0.001555163738366558   10    6    7    3
 -0.0003582235732404211   10    6    7    6
 -0.004462527531766763   10    6    7    7
 0.0008918362008524253   10    6    8    4
 -0.004752702581393061   10    6    8    5
 -0.01212761076135373   10    6    8    8
 -0.00475270258139306   10    6    9    4
 -0.0008918362008524192   10    6    9    5
 -0.01212761076135373   10    6    9    9
 -0.001045870142987716   10    6   10    1
 0.001396208242898608   10    6   10    2
 -0.005772937823222812   10    6   10    3
 0.006773853805758782   10    6   10    6
 0.01076025725697586   10    7    1    1
 -0.001547105405934505   10    7    2    1
 -0.008940562947499332   10    7    2    2
 0.00121824854598544   10    7    3    1
 0.001723559607622639   10    7    3    2
 0.0195981732242532   10    7    3    3
 0.001697187757437522   10    7    4    4
 0.001697187757437522   10    7    5    5
 -0.001317768874239886   10    7    6    1
 -0.0008354372970419451   10    7    6    2
 -0.002591289336675962   10    7    6    3
 -0.000563125398976444   10    7    6    6
 -0.002147604265329552   10    7    7    1
 -0.0005489276961463637   10    7    7    2
 -0.0123041817641004   10    7    7    3
 0.009691282505026372   10    7    7    6
 0.02032345196274404   10    7    7    7
 -0.0003026419844300299   10    7    8    4
 0.001612815603654285   10    7    8    5
 0.002901623996203691   10    7    8    8
 0.00161281560365428   10    7    9    4
 0.0003026419844300323   10    7    9    5
 0.002901623996203677   10    7    9    9
 -0.002873596756620009   10    7   10    1
 -0.0006622865838431025   10    7   10    2
 -0.01641013320830164   10    7   10    3
 0.003974510218594384   10    7   10    6
 0.01592489521917057   10    7   10    7
 -0.0002558025906401266   10    8    4    1
 -0.001674753856773683   10    8    4    2
 -0.002137642134741525   10    8    4    3
 0.001363202829959499   10    8    5    1
 0.008924965112066967   10    8    5    2
 0.01139175252380427   10    8    5    3
 0.001783116031843759   10    8    6    4
 -0.009502440200753314   10    8    6    5
 -0.0004270959326406483   10    8    7    4
 0.002276045690479415   10    8    7    5
 0.006431477550032941   10    8    8    1
 0.01412345006891814   10    8    8    2
 0.01075765342512003   10    8    8    3
 -0.004299354930432198   10    8    8    6
 -0.01599169951381026   10    8    8    7
 -0.002240960087965926   10    8   10    4
 0.01194234634644176   10    8   10    5
 0.02488316390309397   10    8   10    8
 0.001363202829959501   10    9    4    1
 0.008924965112066972   10    9    4    2
 0.01139175252380427   10    9    4    3
 0.0002558025906401218   10    9    5    1
 0.001674753856773669   10    9    5    2
 0.002137642134741513   10    9    5    3
 -0.009502440200753312   10    9    6    4
 -0.001783116031843753   10    9    6    5
 0.002276045690479408   10    9    7    4
 0.0004270959326406515   10    9    7    5
 0.006431477550032936   10    9    9    1
 0.01412345006891813   10    9    9    2
 0.01075765342512001   10    9    9    3
 -0.00429935493043219   10    9    9    6
 -0.01599169951381026   10    9    9    7
 0.01194234634644177   10    9   10    4
 0.002240960087965908   10    9   10    5
 0.02488316390309395   10    9   10    9
 0.3176996416168039   10   10    1    1
 -0.001139600976576794   10   10    2    1
 0.2665938372782676   10   10    2    2
 -0.000540521089013468   10   10    3    1
 -0.003920338605280138   10   10    3    2
 0.1972874530403092   10   10    3    3
 0.1611845525466991   10   10    4    4
 0.1611845525466989   10   10    5    5
 0.0002020735182470279   10   10    6    1
 0.02067680148764556   10   10    6    2
 -0.02927586497067899   10   10    6    3
 0.1577163238025525   10   10    6    6
 0.001103947342691853   10   10    7    1
 -0.01405679250342206   10   10    7    2
 -0.05243885706594162   10   10    7    3
 0.01853121648611817   10   10    7    6
 0.2105470379832978   10   10    7    7
 -0.009189455424904128   10   10    8    4
 0.04897171529681527   10   10    8    5
 0.2316917577073455   10   10    8    8
 0.04897171529681527   10   10    9    4
 0.009189455424904049   10   10    9    5
 0.2316917577073453   10   10    9    9
 -0.0006907435353468498   10   10   10    1
 0.005560191462853748   10   10   10    2
 -0.001518316855811241   10   10   10    3
 -0.01374331344874603   10   10   10    6
 0.009023823646621605   10   10   10    7
 0.2547475742132305   10   10   10   10
 -6.190328829188945e-05   11    1    4    1
 -0.0001743381057610337   11    1    4    2
 7.255700769564976e-06   11    1    4    3
 -0.0001595981666378102   11    1    5    1
 -0.0004494759942859931   11    1    5    2
 1.870654326204183e-05   11    1    5    3
 4.716239348543397e-05   11    1    6    4
 0.0001215934038759695   11    1    6    5
 -6.380402514270609e-05   11    1    7    4
 -0.0001644986190212223   11    1    7    5
 -0.0008799262893964426   11    1    8    1
 -0.0009581255932177879   11    1    8    2
 0.0001061795851827892   11    1    8    3
 -0.0002526943522375161   11    1    8    6
 -7.73618848434341e-05   11    1    8    7
 -0.0005461648737620547   11    1    9    1
 -0.0005947027040491386   11    1    9    2
 6.590502004121854e-05   11    1    9    3
 -0.00015684584112705   11    1    9    6
 -4.801804944195204e-05   11    1    9    7
 -0.0001817487742718978   11    1   10    4
 -0.0004685820731475487   11    1   10    5
 -0.001190871264345028   11    1   10    8
 -0.000739166520645715   11    1   10    9
 0.0004545377868781689   11    1   11    1
 -0.0003249374221568746   11    2    4    1
 -0.00407889908785853   11    2    4    2
 -0.002002717731227883   11    2    4    3
 -0.0008377489836036298   11    2    5    1