 &FCI NORB=  28,NELEC=14,MS2=0,
  ORBSYM=1,1,1,1,1,1,1,1,1,1,1,1,1,1,1,1,1,1,1,1,1,1,1,1,1,1,1,1,
  ISYM=1,
 &END
 2.297872719655778    1    1    1    1
 -5.668314792826911e-12    2    1    1    1
 1.825170087878099    2    1    2    1
 2.298679903740624    2    2    1    1
 5.670329501349537e-12    2    2    2    1
 2.299487681294534    2    2    2    2
 -0.1974125368048726    3    1    1    1
 -0.1975480860408292    3    1    2    2
 0.03555425014200218    3    1    3    1
 -0.2071541157100414    3    2    2    1
 0.03520133823809442    3    2    3    2
 0.8280231156590226    3    3    1    1
 0.8279610172993621    3    3    2    2
 0.005305850177212109    3    3    3    1
 0.8067411999461583    3    3    3    3
 0.1784797507870321    4    1    2    1
 -0.02564260259446692    4    1    3    2
 0.02892178305962956    4    1    4    1
 0.1859146539260878    4    2    1    1
 0.1860221279337761    4    2    2    2
 -0.0253383104812293    4    2    3    1
 0.02111183856450342    4    2    3    3
 0.02917630690024628    4    2    4    2
 -0.1727124947764277    4    3    2    1
 0.008753186541826984    4    3    3    2
 -0.003754077622639295    4    3    4    1
 0.05682269595296478    4    3    4    3
 0.6643639003028442    4    4    1    1
 0.6644236787194561    4    4    2    2
 -0.01292820068452963    4    4    3    1
 0.5177112333274489    4    4    3    3
 0.003251184884061059    4    4    4    2
 0.5345787188085701    4    4    4    4
 0.07247045058659367    5    1    1    1
 0.07249509249361913    5    1    2    2
 -0.002720311818346235    5    1    3    1
 0.03028236567850222    5    1    3    3
 0.01586854945784838    5    1    4    2
 -0.006162861827966003    5    1    4    4
 0.01766798651453525    5    1    5    1
 0.05633201403959487    5    2    2    1
 -0.003390336328443236    5    2    3    2
 0.01535621175948506    5    2    4    1
 0.002029656315902871    5    2    4    3
 0.01654716162192914    5    2    5    2
 0.09458244465469315    5    3    1    1
 0.09451972804542279    5    3    2    2
 0.008850783051786623    5    3    3    1
 0.1413423659431342    5    3    3    3
 0.007510863368328496    5    3    4    2
 0.004710026619903386    5    3    4    4
 0.01626991732501459    5    3    5    1
 0.06728984535442641    5    3    5    3
 0.2520877437269236    5    4    2    1
 -0.01510728789100655    5    4    3    2
 -0.003790666283099676    5    4    4    1
 -0.09343781177833031    5    4    4    3
 -0.01643710336724999    5    4    5    2
 0.2069650993148681    5    4    5    4
 0.692099237054856    5    5    1    1
 0.6921240863002944    5    5    2    2
 -0.008211780576724113    5    5    3    1
 0.5646065739895634    5    5    3    3
 0.004077676816764767    5    5    4    2
 0.53878423854114    5    5    4    4
 -0.001425957576826318    5    5    5    1
 0.03218852449378727    5    5    5    3
 0.5614060885837842    5    5    5    5
 0.01230945812484155    6    1    6    1
 0.01175657958648066    6    2    6    2
 0.01672977445103466    6    3    6    1
 0.09911704632327203    6    3    6    3
 -0.01064865239750096    6    4    6    2
 0.04205738316266283    6    4    6    4
 -0.003974737635265687    6    5    6    1
 -0.01062334914775677    6    5    6    3
 0.0233236474354104    6    5    6    5
 0.6790799602481937    6    6    1    1
 0.6790774375903323    6    6    2    2
 -0.0001485194500560963    6    6    3    1
 0.6255144143554456    6    6    3    3
 0.008376777572596682    6    6    4    2
 0.4904458612834549    6    6    4    4
 0.01034959982697036    6    6    5    1
 0.06119878733933222    6    6    5    3
 0.5013777653471541    6    6    5    5
 0.5697807161731397    6    6    6    6
 0.01230945812484152    7    1    7    1
 0.01175657958648063    7    2    7    2
 0.01672977445103463    7    3    7    1
 0.09911704632327194    7    3    7    3
 -0.01064865239750095    7    4    7    2
 0.04205738316266276    7    4    7    4
 -0.00397473763526568    7    5    7    1
 -0.01062334914775676    7    5    7    3
 0.02332364743541038    7    5    7    5
 0.02286445064097729    7    6    7    6
 0.6790799602481929    7    7    1    1
 0.6790774375903316    7    7    2    2
 -0.0001485194500560752    7    7    3    1
 0.6255144143554447    7    7    3    3
 0.008376777572596646    7    7    4    2
 0.4904458612834542    7    7    4    4
 0.01034959982697034    7    7    5    1
 0.06119878733933214    7    7    5    3
 0.5013777653471534    7    7    5    5
 0.5240518148911846    7    7    6    6
 0.5697807161731384    7    7    7    7
 0.005204180323356185    8    1    6    2
 -0.004774889769736737    8    1    6    4
 0.01046576141551341    8    1    7    2
 -0.00960244534401777    8    1    7    4
 0.01164051189628009    8    1    8    1
 0.005405364095908543    8    2    6    1
 0.006930549291676619    8    2    6    3
 -0.001961033156848106    8    2    6    5
 0.01087034796582112    8    2    7    1
 0.01393754075730528    8    2    7    3
 -0.003943696004416624    8    2    7    5
 0.01200610932416054    8    2    8    2
 0.004468791986171835    8    3    6    2
 -0.01529046457252958    8    3    6    4
 0.008986873597160664    8    3    7    2
 -0.03074957903173762    8    3    7    4
 0.009831955364977598    8    3    8    1
 0.03239052070048834    8    3    8    3
 -0.006170435875196235    8    4    6    1
 -0.02847396083057014    8    4    6    3
 0.01442641101464622    8    4    6    5
 -0.01240893006910295    8    4    7    1
 -0.05726198211656885    8    4    7    3
 0.02901194162773608    8    4    7    5
 -0.01367084639497194    8    4    8    2
 0.07207677851604881    8    4    8    4
 -0.002741601026116717    8    5    6    2
 0.01501128527624744    8    5    6    4
 -0.005513441205542277    8    5    7    2
 0.03018814116342882    8    5    7    4
 -0.006504807842524843    8    5    8    1
 -0.02198896900938488    8    5    8    3
 0.03541073924586981    8    5    8    5
 0.1059476948127828    8    6    2    1
 -0.003692172084387435    8    6    3    2
 0.0007876893529499026    8    6    4    1
 -0.03704516673493539    8    6    4    3
 -0.00173458284242461    8    6    5    2
 0.0594616382970615    8    6    5    4
 0.03869363551302873    8    6    8    6
 0.2130639654160043    8    7    2    1
 -0.007425067876068105    8    7    3    2
 0.001584066716619335    8    7    4    1
 -0.07449893211919215    8    7    4    3
 -0.003488297686916387    8    7    5    2
 0.1195791231521493    8    7    5    4
 0.05007513178786478    8    7    8    6
 0.1144959706441775    8    7    8    7
 0.6175735328149722    8    8    1    1
 0.6175977111448823    8    8    2    2
 -0.00426717865806887    8    8    3    1
 0.5291892033768949    8    8    3    3
 0.004814672815616729    8    8    4    2
 0.4789976959445241    8    8    4    4
 0.002733963410253887    8    8    5    1
 0.02573273864705378    8    8    5    3
 0.4809107325129443    8    8    5    5
 0.4781507687508305    8    8    6    6
 0.01425346529527458    8    8    7    6
 0.4997272661961035    8    8    7    7
 0.4806299145485163    8    8    8    8
 -0.01046576141551343    9    1    6    2
 0.009602445344017782    9    1    6    4
 0.00520418032335618    9    1    7    2
 -0.004774889769736734    9    1    7    4
 0.01164051189628009    9    1    9    1
 -0.01087034796582113    9    2    6    1
 -0.0139375407573053    9    2    6    3
 0.003943696004416628    9    2    6    5
 0.005405364095908539    9    2    7    1
 0.006930549291676615    9    2    7    3
 -0.001961033156848106    9    2    7    5
 0.01200610932416055    9    2    9    2
 -0.008986873597160678    9    3    6    2
 0.03074957903173767    9    3    6    4
 0.004468791986171831    9    3    7    2
 -0.01529046457252957    9    3    7    4
 0.009831955364977607    9    3    9    1
 0.03239052070048836    9    3    9    3
 0.01240893006910298    9    4    6    1
 0.0572619821165689    9    4    6    3
 -0.02901194162773611    9    4    6    5
 -0.006170435875196232    9    4    7    1
 -0.02847396083057013    9    4    7    3
 0.01442641101464622    9    4    7    5
 -0.01367084639497194    9    4    9    2
 0.07207677851604889    9    4    9    4
 0.005513441205542288    9    5    6    2
 -0.03018814116342885    9    5    6    4
 -0.002741601026116716    9    5    7    2
 0.01501128527624744    9    5    7    4
 -0.006504807842524849    9    5    9    1
 -0.0219889690093849    9    5    9    3
 0.03541073924586984    9    5    9    5
 -0.2130639654160046    9    6    2    1
 0.007425067876068124    9    6    3    2
 -0.001584066716619345    9    6    4    1
 0.07449893211919227    9    6    4    3
 0.003488297686916384    9    6    5    2
 -0.1195791231521494    9    6    5    4
 -0.05007513178786482    9    6    8    6
 -0.08690918812411376    9    6    8    7
 0.1144959706441777    9    6    9    6
 0.1059476948127827    9    7    2    1
 -0.003692172084387432    9    7    3    2
 0.0007876893529498996    9    7    4    1
 -0.03704516673493537    9    7    4    3
 -0.001734582842424612    9    7    5    2
 0.05946163829706148    9    7    5    4
 0.01110685299296486    9    7    8    6
 0.05007513178786475    9    7    8    7
 -0.0500751317878648    9    7    9    6
 0.0386936355130287    9    7    9    7
 -0.01425346529527459    9    8    6    6
 -0.01078824872263678    9    8    7    6
 0.01425346529527452    9    8    7    7
 0.01830316231490006    9    8    9    8
 0.6175735328149726    9    9    1    1
 0.6175977111448827    9    9    2    2
 -0.004267178658068842    9    9    3    1
 0.5291892033768953    9    9    3    3
 0.00481467281561672    9    9    4    2
 0.4789976959445244    9    9    4    4
 0.002733963410253885    9    9    5    1
 0.02573273864705379    9    9    5    3
 0.4809107325129446    9    9    5    5
 0.4997272661961044    9    9    6    6
 -0.01425346529527453    9    9    7    6
 0.4781507687508303    9    9    7    7
 0.4440235899187166    9    9    8    8
 0.4806299145485172    9    9    9    9
 -0.1195286341785484   10    1    2    1
 0.02019958282854583   10    1    3    2
 -0.01632660267114704   10    1    4    1
 0.003945620503089033   10    1    4    3
 -0.003958330825513649   10    1    5    2
 -0.005576207482990119   10    1    5    4
 -0.001285128958349615   10    1    8    6
 -0.002584432558167109   10    1    8    7
 0.002584432558167112   10    1    9    6
 -0.001285128958349614   10    1    9    7
 0.01189310633348123   10    1   10    1
 -0.1176927234944118   10    2    1    1
 -0.1177704951024537   10    2    2    2
 0.02027128337262791   10    2    3    1
 -0.001544656226013589   10    2    3    3
 -0.01628913535625832   10    2    4    2
 -0.006013914470199708   10    2    4    4
 -0.003843202747341035   10    2    5    1
 0.002251172192583945   10    2    5    3
 -0.004409768893880089   10    2    5    5
 -0.001006801188222705   10    2    6    6
 -0.001006801188222701   10    2    7    7
 -0.002129027723376543   10    2    8    8
 -0.002129027723376545   10    2    9    9
 0.01191505410930816   10    2   10    2
 0.1339153016691133   10    3    2    1
 -0.004648735553311079   10    3    3    2
 0.005926965709453127   10    3    4    1
 -0.03489363605264663   10    3    4    3
 0.003918984776946529   10    3    5    2
 0.03905180893694149   10    3    5    4
 0.02316107357323886   10    3    8    6
 0.0465776078236174   10    3    8    7
 -0.04657760782361745   10    3    9    6
 0.02316107357323885   10    3    9    7
 -0.002520540569329324   10    3   10    1
 0.03051090631869569   10    3   10    3
 -0.1355330342546378   10    4    1    1
 -0.1355463028715526   10    4    2    2
 0.003150739508706584   10    4    3    1
 -0.09844567834472445   10    4    3    3
 -0.00481501809692986   10    4    4    2
 -0.05112000198665309   10    4    4    4
 -0.003479069422812953   10    4    5    1
 -0.01839017722547174   10    4    5    3
 -0.05016880866927104   10    4    5    5
 -0.07840054670706997   10    4    6    6
 -0.07840054670706989   10    4    7    7
 -0.05919001606338464   10    4    8    8
 -0.05919001606338469   10    4    9    9
 0.001964330441389723   10    4   10    2
 0.03449664312195179   10    4   10    4
 0.01033067987193154   10    5    2    1
 0.001758767437996024   10    5    3    2
 0.0001166377117482764   10    5    4    1
 -0.009802280235754267   10    5    4    3
 0.001593576825616667   10    5    5    2
 0.02766821525883021   10    5    5    4
 0.006044316431741771   10    5    8    6
 0.01215530011721064   10    5    8    7
 -0.01215530011721066   10    5    9    6
 0.006044316431741768   10    5    9    7
 0.000691431586866009   10    5   10    1
 0.0008752459380150339   10    5   10    3
 0.02437126396020027   10    5   10    5
 0.006833248487329197   10    6    6    2
 -0.02011322513134198   10    6    6    4
 0.002976396512761761   10    6    8    1
 0.009049670003008029   10    6    8    3
 -0.004295838615115557   10    6    8    5
 -0.005985621912586211   10    6    9    1
 -0.01819915553570423   10    6    9    3
 0.008639059223903827   10    6    9    5
 0.01514933048677725   10    6   10    6
 0.006833248487329185   10    7    7    2
 -0.02011322513134196   10    7    7    4
 0.005985621912586202   10    7    8    1
 0.01819915553570421   10    7    8    3
 -0.008639059223903815   10    7    8    5
 0.00297639651276176   10    7    9    1
 0.009049670003008031   10    7    9    3
 -0.004295838615115557   10    7    9    5
 0.01514933048677726   10    7   10    7
 0.003299914837859355   10    8    6    1
 0.01489196514233264   10    8    6    3
 -0.002177517134347433   10    8    6    5
 0.006636226886595707   10    8    7    1
 0.02994818482524912   10    8    7    3
 -0.004379051721938768   10    8    7    5
 0.007084021760852154   10    8    8    2
 -0.02187450835161588   10    8    8    4
 0.01834133146643219   10    8   10    8
 -0.006636226886595717   10    9    6    1
 -0.02994818482524916   10    9    6    3
 0.004379051721938781   10    9    6    5
 0.003299914837859355   10    9    7    1
 0.01489196514233264   10    9    7    3
 -0.00217751713434744   10    9    7    5
 0.007084021760852159   10    9    9    2
 -0.02187450835161589   10    9    9    4
 0.0183413314664322   10    9   10    9
 0.4223211526605981   10   10    1    1
 0.4223324899406736   10   10    2    2
 -0.002619311645375395   10   10    3    1
 0.3799424030567364   10   10    3    3
 0.003537737814225413   10   10    4    2
 0.370456922300153   10   10    4    4
 0.002347462857477524   10   10    5    1
 0.01084838936499644   10   10    5    3
 0.3777247472072801   10   10    5    5
 0.3555279760253549   10   10    6    6
 0.3555279760253545   10   10    7    7
 0.3487371208157934   10   10    8    8
 0.3487371208157937   10   10    9    9
 -0.001718347599959169   10   10   10    2
 -0.003307680157288834   10   10   10    4
 0.3502942222533684   10   10   10   10
 0.01093723236186717   11    1    1    1
 0.01095828222035322   11    1    2    2
 -0.008244419130867315   11    1    3    1
 -0.01814443398420434   11    1    3    3
 -0.00291778210087691   11    1    4    2
 0.006607496879951655   11    1    4    4
 -0.01040382968045921   11    1    5    1
 -0.01148011720760025   11    1    5    3
 0.002434906086909897   11    1    5    5
 -0.005226563346058199   11    1    6    6
 -0.005226563346058194   11    1    7    7
 -0.0001589608330448518   11    1    8    8
 -0.0001589608330448519   11    1    9    9
 -0.003243270600453708   11    1   10    2
 0.0008602903533514699   11    1   10    4
 -0.0007578676054831798   11    1   10   10
 0.008994503406418747   11    1   11    1
 0.02196504627059362   11    2    2    1
 -0.007777821710719108   11    2    3    2
 -0.00255422014237202   11    2    4    1
 -0.003238530755535035   11    2    4    3
 -0.009605136852492887   11    2    5    2
 0.01248270355725014   11    2    5    4
 0.001891667232445958   11    2    8    6
 0.003804199067329083   11    2    8    7
 -0.003804199067329088   11    2    9    6
 0.001891667232445958   11    2    9    7
 -0.003162345387246903   11    2   10    1
 -0.001074806194274457   11    2   10    3
 -0.001646002995925008   11    2   10    5
 0.008425664625286204   11    2   11    2
 -0.1027852431161477   11    3    1    1
 -0.1027577532649134   11    3    2    2
 -0.002574646436491581   11    3    3    1
 -0.08798705186478835   11    3    3    3
 -0.006909880337535782   11    3    4    2
 -0.02284768713018662   11    3    4    4
 -0.01062213030684574   11    3    5    1
 -0.04045372297417935   11    3    5    3
 -0.04542508822363503   11    3    5    5
 -0.0326048498166621   11    3    6    6
 -0.03260484981666204   11    3    7    7
 -0.02271429819442257   11    3    8    8
 -0.0227142981944226   11    3    9    9
 0.0003036022034408151   11    3   10    2
 0.005878195036496705   11    3   10    4
 -0.0192701684523962   11    3   10   10
 0.007008971696185755   11    3   11    1
 0.03949896416187675   11    3   11    3
 -0.0315092050151022   11    4    2    1
 0.002487650885216987   11    4    3    2
 -0.0003316306168631508   11    4    4    1
 0.002573328043936774   11    4    4    3
 0.001537020110777571   11    4    5    2
 0.005797512047105788   11    4    5    4
 -0.0022959937849702   11    4    8    6
 -0.004617311790130892   11    4    8    7
 0.004617311790130899   11    4    9    6
 -0.002295993784970196   11    4    9    7
 0.0009688935031574765   11    4   10    1
 -0.007494654660572257   11    4   10    3
 0.01715836474191283   11    4   10    5
 -0.001681133364495291   11    4   11    2
 0.01558501268164895   11    4   11    4
 -0.1663685896096296   11    5    1    1
 -0.1663594190984821   11    5    2    2
 0.0006526035338826035   11    5    3    1
 -0.1301448255747389   11    5    3    3
 -0.006387428585576779   11    5    4    2
 -0.05054667505282229   11    5    4    4
 -0.007397632336817237   11    5    5    1
 -0.03969421360223558   11    5    5    3
 -0.06407416962854758   11    5    5    5
 -0.08308978601309164   11    5    6    6
 -0.08308978601309153   11    5    7    7
 -0.05828292968960291   11    5    8    8
 -0.05828292968960295   11    5    9    9
 0.001348139937226019   11    5   10    2
 0.03472022570868602   11    5   10    4
 -0.005664740979018378   11    5   10   10
 0.003960472820291504   11    5   11    1
 0.02403308828091999   11    5   11    3
 0.04753375035009669   11    5   11    5
 0.002328977320530814   11    6    6    1
 0.02446266701705923   11    6    6    3
 -0.009692797176318099   11    6    6    5
 0.001055104749868339   11    6    8    2
 -0.008990079207417392   11    6    8    4
 -0.002121847033420181   11    6    9    2
 0.01807931667339322   11    6    9    4
 0.004925269929092967   11    6   10    8
 -0.009904864317162462   11    6   10    9
 0.01976038210497274   11    6   11    6
 0.002328977320530811   11    7    7    1
 0.02446266701705922   11    7    7    3
 -0.009692797176318092   11    7    7    5
 0.002121847033420181   11    7    8    2
 -0.01807931667339322   11    7    8    4
 0.001055104749868337   11    7    9    2
 -0.00899007920741738   11    7    9    4
 0.009904864317162461   11    7   10    8
 0.004925269929092965   11    7   10    9
 0.01976038210497273   11    7   11    7
 0.0004109045933003608   11    8    6    2
 -0.002364676807239756   11    8    6    4
 0.0008263413584498527   11    8    7    2
 -0.004755435390718585   11    8    7    4
 0.001051033978033387   11    8    8    1
 0.003962177576582286   11    8    8    3
 -0.002521292843689729   11    8    8    5
 0.002480311167329391   11    8   10    6
 0.004987979528111829   11    8   10    7
 0.007138749105983891   11    8   11    8
 -0.0008263413584498534   11    9    6    2
 0.004755435390718587   11    9    6    4
 0.0004109045933003595   11    9    7    2
 -0.00236467680723975   11    9    7    4
 0.001051033978033387   11    9    9    1
 0.003962177576582286   11    9    9    3
 -0.002521292843689728   11    9    9    5
 -0.004987979528111823   11    9   10    6
 0.002480311167329392   11    9   10    7
 0.007138749105983893   11    9   11    9
 0.04170030525900333   11   10    2    1
 -0.002533838377349073   11   10    3    2
 -0.003900619460690368   11   10    4    1
 -0.03514619645964895   11   10    4    3
 -0.006802386515225856   11   10    5    2
 0.0863373715198479   11   10    5    4
 0.02326039210226627   11   10    8    6
 0.04677734033947119   11   10    8    7
 -0.04677734033947122   11   10    9    6
 0.02326039210226627   11   10    9    7
 -0.0004518673262558762   11   10   10    1
 0.005486388227298897   11   10   10    3
 0.03684341553990971   11   10   10    5
 0.004281294799613089   11   10   11    2
 0.02288839725076857   11   10   11    4
 0.08421945842141612   11   10   11   10
 0.4952068374987529   11   11    1    1
 0.4951943720560518   11   11    2    2
 0.0002202767453668911   11   11    3    1
 0.4692685357049866   11   11    3    3
 0.006015091872920835   11   11    4    2
 0.3967407006726412   11   11    4    4
 0.007622370058238009   11   11    5    1
 0.03872076254884627   11   11    5    3
 0.4129546421794087   11   11    5    5
 0.4161942748398519   11   11    6    6
 0.4161942748398514   11   11    7    7
 0.385989374762637   11   11    8    8
 0.3859893747626372   11   11    9    9
 -0.001027610355868927   11   11   10    2
 -0.02781797167696236   11   11   10    4
 0.3404218076435122   11   11   10   10
 -0.00441867040862302   11   11   11    1
 -0.02604373408040765   11   11   11    3
 -0.0382442260161275   11   11   11    5
 0.37254780160622   11   11   11   11
 0.01403836231635451   12    1    6    1
 0.01699856705117691   12    1    6    3
 -0.003992650515208707   12    1    6    5
 -0.004850311750684316   12    1    7    1
 -0.005873074626166855   12    1    7    3
 0.001379477126597018   12    1    7    5
 0.00188352701885084   12    1    8    2
 -0.001912789088012704   12    1    8    4
 -0.0145441410220827   12    1    9    2
 0.01477009565731153   12    1    9    4
 0.001038688648980518   12    1   10    8
 -0.008020503044350282   12    1   10    9
 0.002191247320805859   12    1   11    6
 -0.0007570849354969579   12    1   11    7
 0.01802991517857994   12    1   12    1
 0.01350220383587203   12    2    6    2
 -0.01096265150931868   12    2    6    4
 -0.004665066796927592   12    2    7    2
 0.003787641053569373   12    2    7    4
 0.001824295747042109   12    2    8    1
 0.001413227889398976   12    2    8    3
 -0.0008458121074782953   12    2    8    5
 -0.01408677143753112   12    2    9    1
 -0.01091260465820094   12    2    9    3
 0.006531156944514994   12    2    9    5
 0.007126891516042065   12    2   10    6
 -0.002462370245697417   12    2   10    7
 0.0001225331156114111   12    2   11    8
 -0.0009461711435468636   12    2   11    9
 0.01744813906141059   12    2   12    2
 0.009133081541297817   12    3    6    1
 0.03588094412440699   12    3    6    3
 0.003456749464287804   12    3    6    5
 -0.003155517126674237   12    3    7    1
 -0.01239701334033185   12    3    7    3
 -0.001194321115809519   12    3    7    5
 0.001151525862332163   12    3    8    2
 -0.002274342160576467   12    3    8    4
 -0.008891804770898633   12    3    9    2
 0.01756192121739453   12    3    9    4
 0.00186829705343404   12    3   10    8
 -0.01442653890511468   12    3   10    9
 -0.001533541951400819   12    3   11    6
 0.0005298450331618396   12    3   11    7
 0.01067546779584626   12    3   12    1
 0.0272928982005843   12    3   12    3
 -0.005901892695229535   12    4    6    2
 0.009466699121294336   12    4    6    4
 0.002039128129468549   12    4    7    2
 -0.003270783368706389   12    4    7    4
 -0.0008029362140617741   12    4    8    1
 -0.001220173851168302   12    4    8    3
 0.0004491418605513203   12    4    8    5
 0.006200079644292289   12    4    9    1
 0.00942188797147004   12    4    9    3
 -0.003468165040055796   12    4    9    5
 -0.008196162237549647   12    4   10    6
 0.002831807664985917   12    4   10    7
 -0.000439164007714865   12    4   11    8
 0.003391118468757052   12    4   11    9
 -0.007004697540290386   12    4   12    2
 0.01238999137250523   12    4   12    4
 6.996082207505014e-05   12    5    6    1
 0.01572403384591614   12    5    6    3
 0.002610162017923626   12    5    6    5
 -2.417175093157674e-05   12    5    7    1
 -0.005432718176973931   12    5    7    3
 -0.0009018216812922676   12    5    7    5
 -4.738494858205729e-05   12    5    8    2
 -0.0008845040739916421   12    5    8    4
 0.0003658951358829181   12    5    9    2
 0.006829926971044883   12    5    9    4
 4.437846844503499e-05   12    5   10    8
 -0.0003426798219238728   12    5   10    9
 0.001699865396233859   12    5   11    6
 -0.0005873104654329634   12    5   11    7
 -3.011116305756047e-05   12    5   12    1
 0.003421545165468806   12    5   12    3
 0.01167625924342241   12    5   12    5
 0.223570698193032   12    6    1    1
 0.2235845430490578   12    6    2    2
 -0.002997806537232839   12    6    3    1
 0.1484526130488951   12    6    3    3
 0.00702748271754741   12    6    4    2
 0.08602471341385415   12    6    4    4
 0.0064528714330243   12    6    5    1
 0.03378080393262625   12    6    5    3
 0.09691820656870245   12    6    5    5
 0.1061485608997458   12    6    6    6
 -0.001220032210022873   12    6    7    6
 0.09908622961784101   12    6    7    7
 0.07996062471039979   12    6    8    8
 -0.00120444906165303   12    6    9    8
 0.08355652382531213   12    6    9    9
 -0.002083495625944868   12    6   10    2
 -0.03048202513566316   12    6   10    4
 0.03995634142385806   12    6   10   10
 -0.002663667359190553   12    6   11    1
 -0.0299928325960356   12    6   11    3
 -0.03814121090759318   12    6   11    5
 0.05015481451779424   12    6   11   11
 0.06887818360409152   12    6   12    6
 -0.07724459307415532   12    7    1    1
 -0.07724937652868905   12    7    2    2
 0.001035754452417818   12    7    3    1
 -0.0512909866026188   12    7    3    3
 -0.002428024098148687   12    7    4    2
 -0.02972189126607599   12    7    4    4
 -0.002229493542903553   12    7    5    1
 -0.0116714062915373   12    7    5    3
 -0.03348563782456209   12    7    5    5
 -0.03423469867895684   12    7    6    6
 0.003531165640952328   12    7    7    6
 -0.03667476309900254   12    7    7    7
 -0.0270434736343296   12    7    8    8
 -0.001797949557456177   12    7    9    8
 -0.02945237175763568   12    7    9    9
 0.0007198562830400016   12    7   10    2
 0.01053166468911557   12    7   10    4
 -0.0138050798202236   12    7   10   10
 0.0009203079961218101   12    7   11    1
 0.01036264666052842   12    7   11    3
 0.01317794478312541   12    7   11    5
 -0.01732869409743382   12    7   11   11
 -0.02096821495364875   12    7   12    6
 0.01543402932693181   12    7   12    7
 0.01884553517006793   12    8    2    1
 -0.0008007884198451546   12    8    3    2
 0.000629818654405659   12    8    4    1
 -0.003205932219022422   12    8    4    3
 0.0001814296210266208   12    8    5    2
 0.003454317157807163   12    8    5    4
 0.004511009877277206   12    8    8    6
 0.003177665678768198   12    8    8    7
 -0.004905999823871443   12    8    9    6
 -0.0004913450598591779   12    8    9    7
 -0.000359819306977993   12    8   10    1
 0.003203065705744676   12    8   10    3
 -0.0009065925478088967   12    8   10    5
 0.0001216607168875241   12    8   11    2
 -0.001456291048769986   12    8   11    4
 -0.00149468583922009   12    8   11   10
 0.007235799552061349   12    8   12    8
 -0.1455206739308225   12    9    2    1
 0.006183494895753882   12    9    3    2
 -0.004863307633146137   12    9    4    1
 0.02475543479548739   12    9    4    3
 -0.001400955742808576   12    9    5    2
 -0.02667340334135446   12    9    5    4
 -0.01465527368431655   12    9    8    6
 -0.02870887948019463   12    9    8    7
 0.033711234417331   12    9    9    6
 -0.0163836078294198   12    9    9    7
 0.002778437840700011   12    9   10    1
 -0.02473330027183256   12    9   10    3
 0.007000488834477388   12    9   10    5
 -0.0009394346911675094   12    9   11    2
 0.01124512798092478   12    9   11    4
 0.01154160328562195   12    9   11   10
 -0.005052709498707496   12    9   12    8
 0.04559725576669327   12    9   12    9
 0.005161799643204302   12   10    6    2
 -0.01350344756926086   12   10    6    4
 -0.001783422944921783   12   10    7    2
 0.004665496511913903   12   10    7    4
 0.0006872760189707869   12   10    8    1
 0.001716807621948415   12   10    8    3
 -0.001299461231304103   12   10    8    5
 -0.005306979534121717   12   10    9    1
 -0.01325677407942807   12   10    9    3
 0.01003412598368081   12   10    9    5
 0.005977908046177917   12   10   10    6
 -0.002065391744955104   12   10   10    7
 -0.0003667578265172328   12   10   11    8
 0.00283201541386629   12   10   11    9
 0.00610019542418111   12   10   12    2
 -0.004464355655222258   12   10   12    4
 0.00993507799190523   12   10   12   10
 -0.002287786552888694   12   11    6    1
 -0.02314265798941212   12   11    6    3
 -0.001825275128472981   12   11    6    5
 0.0007904396360825044   12   11    7    1
 0.007995883241832645   12   11    7    3
 0.0006306400422184938   12   11    7    5
 -0.000257150059930283   12   11    8    2
 0.001109509271179884   12   11    8    4
 0.001985650695759538   12   11    9    2
 -0.008567362795354904   12   11    9    4
 -0.001326432202558321   12   11   10    8
 0.01024238931385771   12   11   10    9
 -0.01162348155014443   12   11   11    6
 0.004015960542694419   12   11   11    7
 -0.002584638171344693   12   11   12    1
 -0.00439911746608375   12   11   12    3
 -0.007180386051475206   12   11   12    5
 0.0182178459833024   12   11   12   11
 0.5902665412511865   12   12    1    1
 0.5902838230742264   12   12    2    2
 -0.003773567315052369   12   12    3    1
 0.507662409394559   12   12    3    3
 0.00905630560433132   12   12    4    2