 &FCI NORB=   8,NELEC= 8,MS2=0,
  ORBSYM=1,1,1,1,1,1,1,1,
  ISYM=1,
 &END
 0.3572479134655518    1    1    1    1
 -0.03761772894686824    2    1    1    1
 0.1322899432585696    2    1    2    1
 0.2887301637338786    2    2    1    1
 0.03929248384826391    2    2    2    1
 0.3347759542842752    2    2    2    2
 -0.05398867817693155    3    1    1    1
 -0.01338307418186605    3    1    2    1
 0.01863298208264785    3    1    2    2
 0.09613722833627426    3    1    3    1
 -0.02244486495137383    3    2    1    1
 0.07481547451151722    3    2    2    1
 0.03005125405659297    3    2    2    2
 -0.007301884351193697    3    2    3    1
 0.09840429894516878    3    2    3    2
 0.2999198808144287    3    3    1    1
 -0.01528240537906979    3    3    2    1
 0.2822614954510987    3    3    2    2
 -0.007399854894680508    3    3    3    1
 -0.01558666620670782    3    3    3    2
 0.3120024494659831    3    3    3    3
 -0.02206866003707993    4    1    1    1
 0.03957036311742457    4    1    2    1
 0.005383883998742242    4    1    2    2
 0.01232495723915906    4    1    3    1
 -0.03587508762651592    4    1    3    2
 0.00244256281090563    4    1    3    3
 0.07570076934983824    4    1    4    1
 0.06093525858109132    4    2    1    1
 0.003615382133073552    4    2    2    1
 0.006265574993713754    4    2    2    2
 -0.06722253263123698    4    2    3    1
 -0.01509402787586071    4    2    3    2
 -0.006169354642404911    4    2    3    3
 0.004072570333662036    4    2    4    1
 0.08401408157862636    4    2    4    2
 0.02560787245183405    4    3    1    1
 -0.1000663401097764    4    3    2    1
 -0.03107058417826148    4    3    2    2
 0.01489759297649307    4    3    3    1
 -0.0755437427324052    4    3    3    2
 0.01558030012197837    4    3    3    3
 -0.01106708655719687    4    3    4    1
 -0.0001771957695236547    4    3    4    2
 0.1115227622368707    4    3    4    3
 0.30708900434505    4    4    1    1
 0.009359839227502876    4    4    2    1
 0.2955360405009667    4    4    2    2
 -0.02311309014293156    4    4    3    1
 0.00260264572936042    4    4    3    2
 0.2927917887007164    4    4    3    3
 0.00085478906173133    4    4    4    1
 0.02557515030064036    4    4    4    2
 -0.009525724908491941    4    4    4    3
 0.3140593885342375    4    4    4    4
 -0.01305137367891471    5    1    1    1
 0.00986386041936714    5    1    2    1
 -0.03586741463667772    5    1    2    2
 -0.02953574015735637    5    1    3    1
 -0.001959116997735392    5    1    3    2
 0.0198569478527884    5    1    3    3
 0.009609269309357509    5    1    4    1
 -0.01761522838758841    5    1    4    2
 -0.004000508594737686    5    1    4    3
 -0.003153558152191767    5    1    4    4
 0.06229305060289492    5    1    5    1
 0.0114129012412018    5    2    1    1
 -0.04731612030552303    5    2    2    1
 -0.01965317356592078    5    2    2    2
 -0.003020548200297026    5    2    3    1
 -0.0005441614657423067    5    2    3    2
 0.003378026483173978    5    2    3    3
 -0.04041256226982502    5    2    4    1
 -0.01203925678066815    5    2    4    2
 -0.004066778064639286    5    2    4    3
 -0.001891277337845395    5    2    4    4
 0.003289270501678316    5    2    5    1
 0.06483128615474212    5    2    5    2
 -0.05909783884913695    5    3    1    1
 -0.004438093541862372    5    3    2    1
 -0.007544718257852282    5    3    2    2
 0.0631225865524864    5    3    3    1
 0.004650920254002907    5    3    3    2
 -0.01600889789120943    5    3    3    3
 0.002536128217883978    5    3    4    1
 -0.05448831488905639    5    3    4    2
 0.007521926990457804    5    3    4    3
 -0.009631079860136456    5    3    4    4
 -0.007775118078458154    5    3    5    1
 0.0006168301896820588    5    3    5    2
 0.07517272573108964    5    3    5    3
 0.02604518211925529    5    4    1    1
 -0.0756099106070878    5    4    2    1
 -0.02701184109119412    5    4    2    2
 0.001312464874116799    5    4    3    1
 -0.06593278496417641    5    4    3    2
 0.01467734928408236    5    4    3    3
 0.0001790010679532661    5    4    4    1
 0.007628183523757177    5    4    4    2
 0.07012695904876456    5    4    4    3
 -0.004210384654984342    5    4    4    4
 0.001853884462235425    5    4    5    1
 0.01150131719949342    5    4    5    2
 -0.005996597624670863    5    4    5    3
 0.08857018266264668    5    4    5    4
 0.3106721634048464    5    5    1    1
 0.009279956519702969    5    5    2    1
 0.298944988467683    5    5    2    2
 -0.02300220986775312    5    5    3    1
 0.002771978702076672    5    5    3    2
 0.2947556650841022    5    5    3    3
 0.0007856066757813002    5    5    4    1
 0.02567665747218859    5    5    4    2
 -0.00948168945443674    5    5    4    3
 0.3089494334313035    5    5    4    4
 -0.004353258620834553    5    5    5    1
 -0.002847372345485284    5    5    5    2
 -0.01748562475932528    5    5    5    3
 -0.003984267036176374    5    5    5    4
 0.3197452360125348    5    5    5    5
 -0.001547084347470866    6    1    1    1
 0.01188847203867919    6    1    2    1
 -0.0005794134313869808    6    1    2    2
 -0.0120396726085658    6    1    3    1
 0.02595386761459961    6    1    3    2
 -1.279615557078838e-05    6    1    3    3
 -0.0198428177066185    6    1    4    1
 -0.001276934523728562    6    1    4    2
 0.01738884079821035    6    1    4    3
 -0.0002458670884732772    6    1    4    4
 0.009300326659196941    6    1    5    1
 -0.02870010787408264    6    1    5    2
 0.002661250341706308    6    1    5    3
 -0.007678598328738122    6    1    5    4
 -0.001214372637287334    6    1    5    5
 0.04871908220885764    6    1    6    1
 0.01415089041500285    6    2    1    1
 -0.0007953612540076563    6    2    2    1
 0.03962880510109874    6    2    2    2
 0.02812874775753786    6    2    3    1
 0.004228253313988808    6    2    3    2
 -0.001206251602944031    6    2    3    3
 -0.00239216906157038    6    2    4    1
 0.002597706121353222    6    2    4    2
 0.00260687379091465    6    2    4    3
 -0.008039155104523016    6    2    4    4
 -0.04142028641442146    6    2    5    1
 -0.01054440685747859    6    2    5    2
 -0.0142808769672226    6    2    5    3
 -0.001735751240947171    6    2    5    4
 -0.0003917603654241108    6    2    5    5
 -0.004825889846255777    6    2    6    1
 0.05284974635407678    6    2    6    2
 -0.01953065319625874    6    3    1    1
 0.03821888173915135    6    3    2    1
 0.005006597245949848    6    3    2    2
 0.004980503932465594    6    3    3    1
 -0.01167626948083432    6    3    3    2
 -0.001499226183707266    6    3    3    3
 0.04733560347832061    6    3    4    1
 0.002890685039997014    6    3    4    2
 -0.006746831808195342    6    3    4    3
 0.001478016539772392    6    3    4    4
 0.008345489764624823    6    3    5    1
 -0.0408251818321895    6    3    5    2
 0.006082995449560685    6    3    5    3
 0.02756794391511211    6    3    5    4
 0.001041057656382467    6    3    5    5
 0.004392087219066528    6    3    6    1
 -0.004422315815296255    6    3    6    2
 0.07241641896531058    6    3    6    3
 -0.06145995573433068    6    4    1    1
 -0.004254876063848122    6    4    2    1
 -0.009295946489057971    6    4    2    2
 0.06425190675017776    6    4    3    1
 0.004778847424614468    6    4    3    2
 -0.01794375695007957    6    4    3    3
 0.003053640503894969    6    4    4    1
 -0.05654470975908948    6    4    4    2
 0.006774497999326652    6    4    4    3
 -0.01816797427205509    6    4    4    4
 -0.007390204315428008    6    4    5    1
 0.0007166802046523323    6    4    5    2
 0.07058208012255059    6    4    5    3
 -0.006141719934304873    6    4    5    4
 -0.01415175309892903    6    4    5    5
 0.001232310426769223    6    4    6    1
 -0.009322422121661138    6    4    6    2
 0.005865537817229215    6    4    6    3
 0.07562716606709952    6    4    6    4
 0.02629993273350393    6    5    1    1
 -0.1026257952045961    6    5    2    1
 -0.03238410656727682    6    5    2    2
 0.01488584752495516    6    5    3    1
 -0.07785155903130354    6    5    3    2
 0.01491555013949384    6    5    3    3
 -0.01063727831638248    6    5    4    1
 0.0002267292711190978    6    5    4    2
 0.1064449654681978    6    5    4    3
 -0.00979356105441451    6    5    4    4
 -0.004781451742879261    6    5    5    1
 0.003619584252716799    6    5    5    2
 0.006460397046915145    6    5    5    3
 0.07185134822754076    6    5    5    4
 -0.009845224367361141    6    5    5    5
 0.009791311081335057    6    5    6    1
 0.002385366396608081    6    5    6    2
 -0.007941065033801441    6    5    6    3
 0.006562225761703382    6    5    6    4
 0.1137548138118064    6    5    6    5
 0.3099395331481104    6    6    1    1
 -0.01513216831509849    6    6    2    1
 0.2934584966118898    6    6    2    2
 -0.007423927343785417    6    6    3    1
 -0.01396369981362332    6    6    3    2
 0.3147351695976739    6    6    3    3
 0.0002340018810049992    6    6    4    1
 0.0004428042115527109    6    6    4    2
 0.01417660075730495    6    6    4    3
 0.301539535860018    6    6    4    4
 0.01145370145427949    6    6    5    1
 0.003168371126856726    6    6    5    2
 -0.01801619859563278    6    6    5    3
 0.01379245740198259    6    6    5    4
 0.3068278348231605    6    6    5    5
 -0.001010667133254525    6    6    6    1
 0.003491851947123047    6    6    6    2
 -0.002771875162763823    6    6    6    3
 -0.0192889992013724    6    6    6    4
 0.01470016191636853    6    6    6    5
 0.3313524633683523    6    6    6    6
 0.001047190804929074    7    1    1    1
 0.002009000658765123    7    1    2    1
 0.004733170882839056    7    1    2    2
 0.005486318591342348    7    1    3    1
 -0.001404988890966327    7    1    3    2
 0.02061126492978242    7    1    3    3
 0.006304825382895111    7    1    4    1
 -0.02045888786933002    7    1    4    2
 -0.002458772997440611    7    1    4    3
 -0.01331137913054936    7    1    4    4
 0.01900472328895596    7    1    5    1
 0.00196305908289144    7    1    5    2
 -0.0220850222989845    7    1    5    3
 0.001783259432124927    7    1    5    4
 -0.008018205346797282    7    1    5    5
 -0.004696737978076857    7    1    6    1
 0.01531174777661365    7    1    6    2
 -0.001883365958625029    7    1    6    3
 -0.01762970049634556    7    1    6    4
 -0.002082827312083513    7    1    6    5
 0.01886879354218241    7    1    6    6
 0.04017040002133115    7    1    7    1
 0.002498843407235963    7    2    1    1
 0.00401450343062011    7    2    2    1
 0.00745949847678071    7    2    2    2
 -0.001645576335601411    7    2    3    1
 0.02701906587953438    7    2    3    2
 0.003214073682748095    7    2    3    3
 -0.02517139426872823    7    2    4    1
 -0.009206477858726501    7    2    4    2
 0.001687262581360396    7    2    4    3
 -0.004423893809110759    7    2    4    4
 0.001395578972529507    7    2    5    1
 -0.003817398131551615    7    2    5    2
 -0.004747647575064921    7    2    5    3
 0.02670560355688594    7    2    5    4
 -0.003467816455833564    7    2    5    5
 0.02454885238172689    7    2    6    1
 0.009293722111625321    7    2    6    2
 0.02685579952381283    7    2    6    3
 -0.004364499731417067    7    2    6    4
 -0.0002143490325217448    7    2    6    5
 0.003440278914729557    7    2    6    6
 0.007798423496695764    7    2    7    1
 0.05906966611120898    7    2    7    2
 0.01554924724504035    7    3    1    1
 -0.001851828546462953    7    3    2    1
 0.04014774577805907    7    3    2    2
 0.02764923247110964    7    3    3    1
 0.003443456992907159    7    3    3    2
 0.0008217512087930815    7    3    3    3
 -0.002695482109057372    7    3    4    1
 0.003119584664946724    7    3    4    2
 0.002456743278508683    7    3    4    3
 -0.0007046888806140996    7    3    4    4
 -0.04115073920025441    7    3    5    1
 -0.008560247757563456    7    3    5    2
 -0.009386678394147674    7    3    5    3
 -0.002055556953308476    7    3    5    4
 -0.004076129075283428    7    3    5    5
 -0.005447789592550857    7    3    6    1
 0.04794291903581311    7    3    6    2
 -0.005552714302874891    7    3    6    3
 -0.01299128079877934    7    3    6    4
 0.002318461536676128    7    3    6    5
 0.003432795805462699    7    3    6    6
 0.01151677560392212    7    3    7    1
 0.007462823318207175    7    3    7    2
 0.05133583061652509    7    3    7    3
 0.01302822843479447    7    4    1    1
 -0.04902897268120544    7    4    2    1
 -0.01892437430663495    7    4    2    2
 -0.003039858850720156    7    4    3    1
 -0.001113494211339634    7    4    3    2
 0.003270941372888985    7    4    3    3
 -0.04206027497012779    7    4    4    1
 -0.01052098693578199    7    4    4    2
 0.003344982624364133    7    4    4    3
 -0.002913396997771304    7    4    4    4
 0.001647460629393323    7    4    5    1
 0.05985589930021843    7    4    5    2
 -0.0002054345862346632    7    4    5    3
 0.01282034259597665    7    4    5    4
 -0.002077844694376878    7    4    5    5
 -0.02343703560154994    7    4    6    1
 -0.008336750215851649    7    4    6    2
 -0.04179205418100759    7    4    6    3
 0.0004885357423062217    7    4    6    4
 0.001222817487135663    7    4    6    5
 0.003329681864235849    7    4    6    6
 0.001705551191910615    7    4    7    1
 -0.002554819746076686    7    4    7    2
 -0.007740165237158347    7    4    7    3
 0.06451338349604829    7    4    7    4
 0.0638379484089559    7    5    1    1
 0.003162803193335536    7    5    2    1
 0.007105879638262694    7    5    2    2
 -0.06929070306777518    7    5    3    1
 -0.01334408297103582    7    5    3    2
 0.0009654548702975069    7    5    3    3
 0.002085421179717351    7    5    4    1
 0.08000214448063157    7    5    4    2
 -0.001020330518696337    7    5    4    3
 0.02777540374222134    7    5    4    4
 -0.01167810858128874    7    5    5    1
 -0.009563597122757669    7    5    5    2
 -0.0570399853649053    7    5    5    3
 0.007690298421931282    7    5    5    4
 0.02887108792810859    7    5    5    5
 -0.0006207425595814676    7    5    6    1
 0.0009045822352190527    7    5    6    2
 0.001622207338440925    7    5    6    3
 -0.05832069604001035    7    5    6    4
 -0.0001507512097354072    7    5    6    5
 -0.001183190142744657    7    5    6    6
 -0.01797554975294859    7    5    7    1
 -0.008045852328956847    7    5    7    2
 0.001503042604060802    7    5    7    3
 -0.009419145151563686    7    5    7    4
 0.08679658825633095    7    5    7    5
 -0.02401940011844935    7    6    1    1
 0.08188484841567062    7    6    2    1
 0.03106548583768381    7    6    2    2
 -0.008986013939046298    7    6    3    1
 0.09823701065735939    7    6    3    2
 -0.016494435175993    7    6    3    3
 -0.02957783748490178    7    6    4    1
 -0.01277707418131572    7    6    4    2
 -0.08121894483113409    7    6    4    3
 0.003292410825582036    7    6    4    4
 -0.00103627600811637    7    6    5    1
 -0.003746836058513139    7    6    5    2
 0.003291859439529671    7    6    5    3
 -0.07036981381686916    7    6    5    4
 0.003352277197837747    7    6    5    5
 0.02495790927502249    7    6    6    1
 0.003714556304590479    7    6    6    2
 -0.009037022784013157    7    6    6    3
 0.003578034918166287    7    6    6    4
 -0.08492595241373802    7    6    6    5
 -0.01572049794056401    7    6    6    6
 -0.001448432819836031    7    6    7    1
 0.02595836312255427    7    6    7    2
 0.003001308503149695    7    6    7    3
 -0.00427844336405445    7    6    7    4
 -0.01245436581583364    7    6    7    5
 0.1088567934316803    7    6    7    6
 0.3071740458347815    7    7    1    1
 0.03240558853926205    7    7    2    1
 0.3456436254655504    7    7    2    2
 0.01497280547638543    7    7    3    1
 0.02477160224368798    7    7    3    2
 0.2990364339703183    7    7    3    3
 0.004174471377040502    7    7    4    1
 0.009386265147110304    7    7    4    2
 -0.02612169241712961    7    7    4    3
 0.3125575282237526    7    7    4    4
 -0.0357812099406084    7    7    5    1
 -0.01761512961259926    7    7    5    2
 -0.01041533100632172    7    7    5    3
 -0.02289240739407199    7    7    5    4
 0.3180846498911564    7    7    5    5
 -0.001669457000456478    7    7    6    1
 0.04021486940353347    7    7    6    2
 0.003341048191649987    7    7    6    3
 -0.01236928707612153    7    7    6    4
 -0.02756940335488808    7    7    6    5
 0.3149010312788302    7    7    6    6
 0.004826445217196996    7    7    7    1
 0.006888206404854928    7    7    7    2
 0.04237033513421912    7    7    7    3
 -0.01780132814578067    7    7    7    4
 0.01048489004028108    7    7    7    5
 0.02729454637686582    7    7    7    6
 0.3747357088725149    7    7    7    7
 0.0001105933011069721    8    1    1    1
 -0.002005457816952725    8    1    2    1
 0.0007492046553429517    8    1    2    2
 0.0008887719476368399    8    1    3    1
 0.00447969493337467    8    1    3    2
 -0.007196213356102393    8    1    3    3
 -0.006202285054415052    8    1    4    1
 0.003258142584677221    8    1    4    2
 -0.01421810220999916    8    1    4    3
 0.003518216843348309    8    1    4    4
 -0.009266666310918348    8    1    5    1
 0.01724685871782186    8    1    5    2
 0.004872484299919743    8    1    5    3
 0.03219044599307975    8    1    5    4
 0.003245705714860817    8    1    5    5
 -0.01438601233583473    8    1    6    1
 -0.001834627379060634    8    1    6    2
 0.02902487936256797    8    1    6    3
 0.004673243534018899    8    1    6    4
 -0.01255759574774882    8    1    6    5
 -0.006386237720113196    8    1    6    6
 -0.01034659008856438    8    1    7    1
 0.0322602969233742    8    1    7    2
 -0.001719917140277368    8    1    7    3
 0.01626637414289758    8    1    7    4
 0.003155787803612893    8    1    7    5
 0.004124329550011773    8    1    7    6
 0.0007505337106987566    8    1    7    7
 0.05103471290999663    8    1    8    1
 0.001768324943044529    8    2    1    1
 0.001684783048063344    8    2    2    1
 0.004781615682384425    8    2    2    2
 0.004461883663456716    8    2    3    1
 -0.0003439998857114392    8    2    3    2
 0.02090245148013851    8    2    3    3
 0.004586697863855418    8    2    4    1
 -0.01965424546716335    8    2    4    2
 -0.002333677168918055    8    2    4    3
 -0.009333564693130927    8    2    4    4
 0.01908885218500806    8    2    5    1
 0.002712965156978276    8    2    5    2
 -0.01938719311653518    8    2    5    3
 0.003473591973965347    8    2    5    4
 -0.01057606142634898    8    2    5    5
 -0.00337227801298924    8    2    6    1
 0.01220417665947968    8    2    6    2
 -0.0005606670901299169    8    2    6    3
 -0.02017920292475615    8    2    6    4
 -0.002356572850385415    8    2    6    5
 0.01966773182323898    8    2    6    6
 0.03777721521342996    8    2    7    1
 0.01028884701665417    8    2    7    2
 0.01297553803477143    8    2    7    3
 0.002158515840422461    8    2    7    4
 -0.01869043318089963    8    2    7    5
 -0.0005113045010650434    8    2    7    6
 0.004888237537972523    8    2    7    7
 -0.00805277741156633    8    2    8    1
 0.03853624123029328    8    2    8    2
 -0.001938997934795789    8    3    1    1
 0.01161430284880977    8    3    2    1
 -6.329173263704829e-06    8    3    2    2
 -0.01059164577463382    8    3    3    1
 0.02582777346413184    8    3    3    2
 -0.001314258430902761    8    3    3    3
 -0.01946442075521114    8    3    4    1
 -0.001546040915884469    8    3    4    2
 0.0128761294138121    8    3    4    3
 -0.001635091260969951    8    3    4    4
 0.007435258948180293    8    3    5    1
 -0.0247474481311349    8    3    5    2
 0.001784654036036482    8    3    5    3
 -0.008988282428080197    8    3    5    4
 -0.00111032640547094    8    3    5    5
 0.04435190894718914    8    3    6    1
 -0.002956818585691553    8    3    6    2
 0.002971875535256818    8    3    6    3
 0.002130299297584888    8    3    6    4
 0.01332581849422483    8    3    6    5
 -0.00109698349119727    8    3    6    6
 -0.003867879932439755    8    3    7    1
 0.02338888459562413    8    3    7    2
 -0.004741597423651657    8    3    7    3
 -0.02633469904529095    8    3    7    4
 -0.0009642019129046933    8    3    7    5
 0.02663853710442478    8    3    7    6
 -0.00111851218163668    8    3    7    7
 -0.01452597646701827    8    3    8    1
 -0.003494105880392393    8    3    8    2
 0.04638617967314832    8    3    8    3
 -0.01168820574610893    8    4    1    1
 0.008158837276686048    8    4    2    1
 -0.03610310987527898    8    4    2    2
 -0.03067482769057267    8    4    3    1
 -0.002199420129006003    8    4    3    2
 0.01541279142897402    8    4    3    3
 0.007803264922204982    8    4    4    1
 -0.01277441450523181    8    4    4    2
 -0.004454380854595211    8    4    4    3
 -0.00412033147521206    8    4    4    4
 0.05826742523437144    8    4    5    1
 0.004918476682352884    8    4    5    2
 -0.009602057442502858    8    4    5    3
 0.002678801247191806    8    4    5    4
 -0.004470580389579212    8    4    5    5
 0.007842791778004291    8    4    6    1
 -0.04049345839679763    8    4    6    2
 0.007241913710656347    8    4    6    3
 -0.009176408251934512    8    4    6    4
 -0.00447129055513207    8    4    6    5
 0.01515408406875606    8    4    6    6
 0.01802859484418608    8    4    7    1
 0.001320035685818388    8    4    7    2
 -0.04196770784367285    8    4    7    3
 0.003511727102841959    8    4    7    4
 -0.01364092985631774    8    4    7    5
 -0.001633633529360559    8    4    7    6
 -0.03982566395241141    8    4    7    7
 -0.008222597618015118    8    4    8    1
 0.0188474457828837    8    4    8    2
 0.00698324099680314    8    4    8    3
 0.06227913888777067    8    4    8    4
 -0.02062043507233724    8    5    1    1
 0.04243589365143313    8    5    2    1
 0.007082413080843195    8    5    2    2
 0.009593205861365743    8    5    3    1
 -0.03115609547359943    8    5    3    2
 0.001458515840814554    8    5    3    3
 0.07316580316027979    8    5    4    1
 0.006409658085268674    8    5    4    2
 -0.01368694777513206    8    5    4    3
 0.00244944615619845    8    5    4    4
 0.008730471093720634    8    5    5    1
 -0.04168768578722499    8    5    5    2
 0.001378307656827153    8    5    5    3
 -0.001621239294831081    8    5    5    4
 0.001934836577389796    8    5    5    5
 -0.01824514232022625    8    5    6    1
 -0.002463372909142489    8    5    6    2
 0.04862370700726838    8    5    6    3
 0.001110012017814561    8    5    6    4
 -0.01386726357669607    8    5    6    5
 0.0009026416423316384    8    5    6    6
 0.00522475662855967    8    5    7    1
 -0.02458790281399707    8    5    7    2
 -0.002452928838544315    8    5    7    3
 -0.04430451192845282    8    5    7    4
 0.004616003668408244    8    5    7    5
 -0.03226239029748054    8    5    7    6
 0.005893993427038164    8    5    7    7
 -0.005792500364245331    8    5    8    1
 0.004047868798210413    8    5    8    2
 -0.01964478504225494    8    5    8    3
 0.008078022269137272    8    5    8    4
 0.08012413997992823    8    5    8    5
 -0.05823568915221854    8    6    1    1
 -0.01112093490790215    8    6    2    1
 0.01616900569181507    8    6    2    2
 0.09650607655250996    8    6    3    1
 -0.003841059014654194    8    6    3    2
 -0.01050882518381509    8    6    3    3
 0.01087632149882107    8    6    4    1
 -0.06933422368417531    8    6    4    2
 0.01320805526818141    8    6    4    3
 -0.02570240366878411    8    6    4    4
 -0.02970232538095313    8    6    5    1
 -0.003274132716978614    8    6    5    2
 0.06637135589859258    8    6    5    3
 -0.0009266586861835513    8    6    5    4
 -0.02621166698890948    8    6    5    5
 -0.01077802216291422    8    6    6    1
 0.02833020531990037    8    6    6    2
 0.004811349489298298    8    6    6    3
 0.06811101807303825    8    6    6    4
 0.01311350071746768    8    6    6    5
 -0.01061408302381735    8    6    6    6
 0.004790153021560405    8    6    7    1
 -0.0007479932358190728    8    6    7    2
 0.02910993812180404    8    6    7    3
 -0.003266110076030146    8    6    7    4
 -0.07491959578059974    8    6    7    5
 -0.006428918847151476    8    6    7    6
 0.01857507572046992    8    6    7    7
 0.00116245046774701    8    6    8    1
 0.003994829156013503    8    6    8    2
 -0.01017689155169461    8    6    8    3
 -0.03385322355165325    8    6    8    4
 0.009359265959516985    8    6    8    5
 0.107819952378447    8    6    8    6
 -0.04034617243195061    8    7    1    1
 0.1412043317788356    8    7    2    1
 0.04287172271034207    8    7    2    2
 -0.01309946682582895    8    7    3    1
 0.08033874669617949    8    7    3    2
 -0.01654882817966571    8    7    3    3
 0.04269232466273724    8    7    4    1
 0.003474945591511765    8    7    4    2
 -0.1086567751036451    8    7    4    3
 0.01051221639036293    8    7    4    4
 0.009779491808686917    8    7    5    1
 -0.05113055591312796    8    7    5    2
 -0.004076965762282499    8    7    5    3
 -0.08281283667747923    8    7    5    4
 0.01042375175619569    8    7    5    5
 0.01230849461694116    8    7    6    1
 -0.0004263450085253513    8    7    6    2
 0.04216495349752432    8    7    6    3
 -0.00415375936067274    8    7    6    4
 -0.1132672345746808    8    7    6    5
 -0.01631347040781644    8    7    6    6
 0.002011550993354543    8    7    7    1
 0.004029885915079112    8    7    7    2
 -0.001480538431567464    8    7    7    3
 -0.05558730516958608    8    7    7    4
 0.003230684150235709    8    7    7    5
 0.09136434199046529    8    7    7    6
 0.0379369880312974    8    7    7    7
 -0.00229606979088959    8    7    8    1
 0.001774571985895069    8    7    8    2
 0.01294294843472382    8    7    8    3
 0.008709510662273412    8    7    8    4
 0.04958777937338738    8    7    8    5
 -0.0118038987002626    8    7    8    6
 0.1634694529380966    8    7    8    7
 0.3806930917762643    8    8    1    1
 -0.03179402900201212    8    8    2    1
 0.3099102884555664    8    8    2    2
 -0.0621753259601335    8    8    3    1
 -0.02043715449315922    8    8    3    2
 0.3210042052415811    8    8    3    3
 -0.02067752845152736    8    8    4    1
 0.06873634553726246    8    8    4    2
 0.0213358774936359    8    8    4    3
 0.3323413764678019    8    8    4    4
 -0.01239505034722991    8    8    5    1
 0.009266582110704373    8    8    5    2
 -0.06723990966589968    8    8    5    3
 0.02421450797117605    8    8    5    4
 0.3383668690547553    8    8    5    5
 -0.00103583139092436    8    8    6    1
 0.01437547374138445    8    8    6    2
 -0.01880121258368387    8    8    6    3
 -0.07136232969198225    8    8    6    4
 0.02231830697968263    8    8    6    5
 0.3382095931867421    8    8    6    6
 0.001265035818609067    8    8    7    1
 0.002628787840147679    8    8    7    2
 0.01664352720300379    8    8    7    3
 0.01123324248219148    8    8    7    4
 0.07526096200193613    8    8    7    5
 -0.0221638491808381    8    8    7    6
 0.3408331300959881    8    8    7    7
 -9.650325681180788e-05    8    8    8    1
 0.002300899246289097    8    8    8    2
 -0.001677507731860441    8    8    8    3
 -0.01163138427692572    8    8    8    4
 -0.02031507515085589    8    8    8    5
 -0.0711573498119089    8    8    8    6
 -0.03680661492303484    8    8    8    7
 0.4276426424078069    8    8    8    8
 -2.505002730306386    1    1  0  0
 0.006941046383444275    2    1  0  0
 -2.354143449546043    2    2  0  0
 0.1340971302403468    3    1  0  0
 0.01165956735749031    3    2  0  0
 -2.217290848203052    3    3  0  0
 0.02407394937977781    4    1  0  0
 -0.1773459112917086    4    2  0  0
 0.002101793663603923    4    3  0  0
 -2.123259244920701    4    4  0  0
 0.06736490205916487    5    1  0  0
 0.01599684403416112    5    2  0  0
 0.2086032925755683    5    3  0  0
 -0.0181190581288961    5    4  0  0
 -1.964439019305426    5    5  0  0
 0.01046203227982964    6    1  0  0
 -0.1057723317772805    6    2  0  0
 0.02655437684134774    6    3  0  0
 0.1715752798881132    6    4  0  0
 0.0006215766064754706    6    5  0  0
 -1.739135087640198    6    6  0  0
 -0.03550987015784261    7    1  0  0
 -0.01510607834735233    7    2  0  0
 -0.07495594728870203    7    3  0  0
 0.007718891421966939    7    4  0  0
 -0.1807483705478501    7    5  0  0
 0.01184466743575154    7    6  0  0
 -1.51414976825946    7    7  0  0
 0.004643390527795756    8    1  0  0
 -0.02040811717517663    8    2  0  0
 0.004565479324824187    8    3  0  0
 0.05589696532525207    8    4  0  0
 0.01716987401680193    8    5  0  0
 0.1481694478897309    8    6  0  0
 0.005734490833400964    8    7  0  0
 -1.457218831998283    8    8  0  0
 7.051383499349365  0  0  0  0
