 &FCI NORB=  16,NELEC=16,MS2=0,
  ORBSYM=1,1,1,1,1,1,1,1,1,1,1,1,1,1,1,1,
  ISYM=1,
 &END
 0.23976651065349    1    1    1    1
 -0.04107172060049136    2    1    1    1
 0.1170409529371572    2    1    2    1
 0.1976385309239964    2    2    1    1
 0.04494755821653321    2    2    2    1
 0.2455275958388334    2    2    2    2
 0.02285407369717564    3    1    1    1
 0.008620454844249526    3    1    2    1
 -0.01590569852920522    3    1    2    2
 0.08175380678500464    3    1    3    1
 0.01285315430429274    3    2    1    1
 -0.04631864787602837    3    2    2    1
 -0.0226623839403862    3    2    2    2
 -0.01380964167766614    3    2    3    1
 0.05997176879386588    3    2    3    2
 0.205156258929823    3    3    1    1
 -0.02454462051384331    3    3    2    1
 0.1745236453269645    3    3    2    2
 0.01541622274420706    3    3    3    1
 0.01484301336957272    3    3    3    2
 0.2222981736759235    3    3    3    3
 0.01513125960790524    4    1    1    1
 -0.02506840282321712    4    1    2    1
 -0.004462257071019676    4    1    2    2
 0.01497250237505392    4    1    3    1
 -0.03698903357361398    4    1    3    2
 -0.0006828817678868756    4    1    3    3
 0.058792877828278    4    1    4    1
 -0.03577334093376469    4    2    1    1
 -0.001727641087517213    4    2    2    1
 -0.0072319372771154    4    2    2    2
 -0.05232872780232374    4    2    3    1
 -0.01536852749156394    4    2    3    2
 -0.0001897048502045684    4    2    3    3
 0.01355458168982162    4    2    4    1
 0.07304367405513645    4    2    4    2
 0.02680195299157999    4    3    1    1
 -0.07768688618433092    4    3    2    1
 -0.02985031084636737    4    3    2    2
 -0.008755667574246305    4    3    3    1
 0.04123006848690876    4    3    3    2
 0.02430087790712268    4    3    3    3
 0.002565129816481268    4    3    4    1
 -0.00409410527044453    4    3    4    2
 0.08430169338888455    4    3    4    3
 0.1852705791086578    4    4    1    1
 0.0256218527135114    4    4    2    1
 0.2016713635339659    4    4    2    2
 0.007193142878316908    4    4    3    1
 -0.01065508291677762    4    4    3    2
 0.1854488881076339    4    4    3    3
 -0.003808130621173242    4    4    4    1
 -0.006160180111847711    4    4    4    2
 -0.02419987177566022    4    4    4    3
 0.2126865609552849    4    4    4    4
 0.02662527550733675    5    1    1    1
 -0.01100300395872424    5    1    2    1
 0.03270145059164902    5    1    2    2
 -0.01667549244409142    5    1    3    1
 -2.715442363718386e-05    5    1    3    2
 -0.02247537524216918    5    1    3    3
 0.008463153407431281    5    1    4    1
 -0.02107452710692285    5    1    4    2
 -0.0001315635908953202    5    1    4    3
 -0.000332044563489393    5    1    4    4
 0.05425215890517282    5    1    5    1
 -0.01191593972278974    5    2    1    1
 0.0394493019646657    5    2    2    1
 0.01712478887970412    5    2    2    2
 -0.001622529670513408    5    2    3    1
 0.003680204396513803    5    2    3    2
 -0.0008335395954230309    5    2    3    3
 -0.03208521491385791    5    2    4    1
 -0.01272990134389958    5    2    4    2
 0.006276874767149061    5    2    4    3
 0.001630404192336106    5    2    4    4
 -0.007379017796847184    5    2    5    1
 0.04803975473551277    5    2    5    2
 -0.03247815673445976    5    3    1    1
 -0.003110229047399213    5    3    2    1
 -0.003325330101490657    5    3    2    2
 -0.05520956251866251    5    3    3    1
 0.004438692386130869    5    3    3    2
 -0.02146984954908403    5    3    3    3
 -0.006723842774975671    5    3    4    1
 0.03958224068411715    5    3    4    2
 0.008931849965222607    5    3    4    3
 0.006650840208892922    5    3    4    4
 0.003990860381507033    5    3    5    1
 0.003815729219820039    5    3    5    2
 0.06877530087482295    5    3    5    3
 0.01939588144488669    5    4    1    1
 -0.05841077975698158    5    4    2    1
 -0.02529354342300399    5    4    2    2
 -0.007183483225440857    5    4    3    1
 0.0419733922245406    5    4    3    2
 0.0168596710095674    5    4    3    3
 -0.009105773128595823    5    4    4    1
 -0.007551266311453326    5    4    4    2
 0.05428392680591026    5    4    4    3
 -0.01857565268881104    5    4    4    4
 0.001051580927767709    5    4    5    1
 -0.001664354585478848    5    4    5    2
 0.005775179735657712    5    4    5    3
 0.06498340712382127    5    4    5    4
 0.1994268312428851    5    5    1    1
 -0.01667095663032819    5    5    2    1
 0.1799645282894216    5    5    2    2
 0.01056316618733505    5    5    3    1
 0.008811413587740839    5    5    3    2
 0.197296783745255    5    5    3    3
 0.001679221308026015    5    5    4    1
 -0.009279756414117851    5    5    4    2
 0.0134691966305948    5    5    4    3
 0.1834717085597894    5    5    4    4
 -0.001273712902475791    5    5    5    1
 -0.002560893464474785    5    5    5    2
 -0.01045725327619557    5    5    5    3
 0.01343309588501182    5    5    5    4
 0.2068355819366969    5    5    5    5
 0.00259551735304714    6    1    1    1
 -0.01422700955161472    6    1    2    1
 -0.005044590612313161    6    1    2    2
 -0.01249069864960652    6    1    3    1
 0.02442035520910557    6    1    3    2
 -0.003090322875339269    6    1    3    3
 -0.01628878293108645    6    1    4    1
 -0.002006658209311644    6    1    4    2
 -0.01606506432399119    6    1    4    3
 0.002778477891531509    6    1    4    4
 0.009165559249929928    6    1    5    1
 -0.02361228874680605    6    1    5    2
 -0.001528587287167844    6    1    5    3
 0.002360571286201029    6    1    5    4
 4.128372443870871e-05    6    1    5    5
 0.04168571281220619    6    1    6    1
 -0.01457862621993386    6    2    1    1
 -0.006375457055808629    6    2    2    1
 -0.03783105048008686    6    2    2    2
 0.02710010706290789    6    2    3    1
 0.006084477042151953    6    2    3    2
 0.00653848132353492    6    2    3    3
 -0.0009670252670033695    6    2    4    1
 -0.003681328413988301    6    2    4    2
 -0.002309215358949465    6    2    4    3
 0.01226389294633972    6    2    4    4
 -0.03110644825858176    6    2    5    1
 -0.01032644415682138    6    2    5    2
 0.006419110790276111    6    2    5    3
 0.0001697827034244886    6    2    5    4
 0.001739181113115845    6    2    5    5
 0.005014490889426505    6    2    6    1
 0.04734186901562733    6    2    6    2
 -0.01814366440138554    6    3    1    1
 0.03601954389402045    6    3    2    1
 0.009047319516510454    6    3    2    2
 -0.006807001053438825    6    3    3    1
 0.01122306957736919    6    3    3    2
 -0.005895984615491267    6    3    3    3
 -0.03672013089499664    6    3    4    1
 -0.007209524355876767    6    3    4    2
 -0.01210090834665717    6    3    4    3
 0.003533992816321322    6    3    4    4
 -0.007264911229883295    6    3    5    1
 0.02811596548627103    6    3    5    2
 0.009094158263296069    6    3    5    3
 0.01950351219648344    6    3    5    4
 -0.0002047334032189169    6    3    5    5
 -0.0005771261995775089    6    3    6    1
 -0.002201408863013715    6    3    6    2
 0.05300916818175307    6    3    6    3
 -0.03733386352210213    6    4    1    1
 -0.001225989238035632    6    4    2    1
 -0.01120516201153121    6    4    2    2
 -0.0460354354503614    6    4    3    1
 -0.007475746314620006    6    4    3    2
 -0.02160596280193317    6    4    3    3
 0.005541467368065729    6    4    4    1
 0.04672256207773919    6    4    4    2
 0.0001123219035177006    6    4    4    3
 -0.006433864760801279    6    4    4    4
 -0.00317459458059806    6    4    5    1
 -0.004860546673450055    6    4    5    2
 0.04942302597128682    6    4    5    3
 -0.009106781728548282    6    4    5    4
 0.0003979513865951722    6    4    5    5
 -0.001128300045019328    6    4    6    1
 0.002333932463544026    6    4    6    2
 -0.00590834696648774    6    4    6    3
 0.06256643950823465    6    4    6    4
 0.02287844413327458    6    5    1    1
 -0.06956506686447791    6    5    2    1
 -0.02735780310942738    6    5    2    2
 -0.01060938515676299    6    5    3    1
 0.04222705464169575    6    5    3    2
 0.01934052271438119    6    5    3    3
 -0.002995564306924098    6    5    4    1
 -0.00446002609791753    6    5    4    2
 0.06688627119326356    6    5    4    3
 -0.01971738549351501    6    5    4    4
 0.002086860098095174    6    5    5    1
 -0.0009054762904823705    6    5    5    2
 0.008427707286955681    6    5    5    3
 0.05408239975080887    6    5    5    4
 0.01422030215352883    6    5    5    5
 -0.002872994821740354    6    5    6    1
 -5.215075053726986e-05    6    5    6    2
 -0.001583746768526221    6    5    6    3
 -0.002689869710596262    6    5    6    4
 0.07535299520663939    6    5    6    5
 0.1854421943559534    6    6    1    1
 0.0133582548185437    6    6    2    1
 0.1930124695995456    6    6    2    2
 0.005019507815152987    6    6    3    1
 -0.006181479781839943    6    6    3    2
 0.1882087809498354    6    6    3    3
 -0.001416879127567617    6    6    4    1
 -0.00128564125991821    6    6    4    2
 -0.01221903968118997    6    6    4    3
 0.1929112759018647    6    6    4    4
 -0.002808182157554409    6    6    5    1
 0.001115071743069333    6    6    5    2
 -0.005654845817071926    6    6    5    3
 -0.008153535609441435    6    6    5    4
 0.1875740259141715    6    6    5    5
 0.0007831908242273283    6    6    6    1
 0.0006085283000322964    6    6    6    2
 0.002307152134136682    6    6    6    3
 -0.004611483985395712    6    6    6    4
 -0.01200880401520691    6    6    6    5
 0.2019639500414038    6    6    6    6
 0.002659936889746077    7    1    1    1
 -0.001566337269928126    7    1    2    1
 -0.004352945403081502    7    1    2    2
 0.0155654986666702    7    1    3    1
 -0.00456847080894855    7    1    3    2
 -0.01820466722610436    7    1    3    3
 0.008071432446121338    7    1    4    1
 -0.024079880529216    7    1    4    2
 0.001371641528461252    7    1    4    3
 0.01224703747339101    7    1    4    4
 0.01513032751479416    7    1    5    1
 -0.0008077887488953885    7    1    5    2
 0.01692222492045138    7    1    5    3
 0.001978178155009006    7    1    5    4
 0.001764385906588414    7    1    5    5
 -0.006392538076174843    7    1    6    1
 0.01784044030297725    7    1    6    2
 0.001367418254036028    7    1    6    3
 0.004541285217727753    7    1    6    4
 0.001176277071645992    7    1    6    5
 -0.002968140718380922    7    1    6    6
 0.04016655077507059    7    1    7    1
 -0.001396990727387596    7    2    1    1
 -0.003739647356473156    7    2    2    1
 -0.005692676510805312    7    2    2    2
 -0.005209577184859912    7    2    3    1
 0.02673212505501694    7    2    3    2
 0.0007582822447620831    7    2    3    3
 -0.02707411943319772    7    2    4    1
 -0.01140525603231738    7    2    4    2
 -0.001037604905230323    7    2    4    3
 0.005113672733544551    7    2    4    4
 -0.0002657558832828159    7    2    5    1
 0.001905467693298471    7    2    5    2
 -7.70694192565439e-05    7    2    5    3
 -0.01302018611970868    7    2    5    4
 -0.001362973794205418    7    2    5    5
 0.0237784664383036    7    2    6    1
 0.009788405266835557    7    2    6    2
 -0.01075788410282982    7    2    6    3
 0.001491720190048994    7    2    6    4
 -0.001463491583097896    7    2    6    5
 -0.0002139124314496929    7    2    6    6
 -0.002926011262652574    7    2    7    1
 0.04137451855880722    7    2    7    2
 0.02220299773064281    7    3    1    1
 -0.00734833782127926    7    3    2    1
 0.03415784377742714    7    3    2    2
 -0.02592790810020861    7    3    3    1
 0.001782061108295169    7    3    3    2
 -0.003607565406223979    7    3    3    3
 0.002281685031285379    7    3    4    1
 -0.001069130640311636    7    3    4    2
 0.00334695936929348    7    3    4    3
 0.005794119276570966    7    3    4    4
 0.03393540110415039    7    3    5    1
 -0.001802620359618277    7    3    5    2
 0.007023766229351519    7    3    5    3
 -0.00109650273803868    7    3    5    4
 -0.0137262947737429    7    3    5    5
 0.005641540272436041    7    3    6    1
 -0.02860892171982766    7    3    6    2
 -0.007852205705630387    7    3    6    3
 -0.01361450661777322    7    3    6    4
 0.0008175189301889421    7    3    6    5
 -0.001389478896775902    7    3    6    6
 -0.00422336750772398    7    3    7    1
 0.001461007898887251    7    3    7    2
 0.04639686329365492    7    3    7    3
 0.01350619412583273    7    4    1    1
 -0.04262373542843361    7    4    2    1
 -0.01823383726343888    7    4    2    2
 0.002383738396938832    7    4    3    1
 -0.001759185909038896    7    4    3    2
 0.004368187550784665    7    4    3    3
 0.0310036496651335    7    4    4    1
 0.0104632868926991    7    4    4    2
 0.01025195194270508    7    4    4    3
 -0.006669316610104478    7    4    4    4
 0.005084412550021579    7    4    5    1
 -0.0356998952462723    7    4    5    2
 -0.003687799764135187    7    4    5    3
 0.0003367989682503229    7    4    5    4
 0.002245522590084847    7    4    5    5
 0.01114298169695147    7    4    6    1
 0.006835953534786538    7    4    6    2
 -0.03564944236744633    7    4    6    3
 0.008395111492156297    7    4    6    4
 -0.007686614295229119    7    4    6    5
 -0.0007390739833779275    7    4    6    6
 0.0001345077706886805    7    4    7    1
 0.002601311900084021    7    4    7    2
 0.002812567530413738    7    4    7    3
 0.04908881717901929    7    4    7    4
 0.03941530217052178    7    5    1    1
 0.0001844963945757574    7    5    2    1
 0.01106238168723394    7    5    2    2
 0.05164754501431381    7    5    3    1
 -0.00187841641419939    7    5    3    2
 0.01893007318610788    7    5    3    3
 0.006035594568853696    7    5    4    1
 -0.04654015676328612    7    5    4    2
 -0.004501175014258924    7    5    4    3
 0.007092900389018534    7    5    4    4
 0.006220058118178793    7    5    5    1
 -0.002022070023100769    7    5    5    2
 -0.05164067809912132    7    5    5    3
 -0.0005406794344968912    7    5    5    4
 0.01244895486837122    7    5    5    5
 -6.997040716148805e-05    7    5    6    1
 -0.0009052813840151387    7    5    6    2
 -0.005022870155668876    7    5    6    3
 -0.047139447019323    7    5    6    4
 -0.00636404386576774    7    5    6    5
 -0.004513164638216311    7    5    6    6
 0.002301271546276579    7    5    7    1
 -0.0005842616749640712    7    5    7    2
 0.001575597421117079    7    5    7    3
 0.002769371167803007    7    5    7    4
 0.06175574853224641    7    5    7    5
 -0.02069480439054272    7    6    1    1
 0.06299123200969052    7    6    2    1
 0.0273924866095383    7    6    2    2
 0.008937104289870709    7    6    3    1
 -0.04914770083709933    7    6    3    2
 -0.01964552007771871    7    6    3    3
 0.01456636262107428    7    6    4    1
 0.00957980238242976    7    6    4    2
 -0.06031774318450693    7    6    4    3
 0.01840890261087907    7    6    4    4
 0.0001038411383749529    7    6    5    1
 -0.001230110815343105    7    6    5    2
 -0.004911655294719658    7    6    5    3
 -0.05564915676222367    7    6    5    4
 -0.01314628639790494    7    6    5    5
 -0.005302009990851153    7    6    6    1
 -0.001948332846476259    7    6    6    2
 -0.006796586340897965    7    6    6    3
 0.006587553257560715    7    6    6    4
 -0.06005130779473997    7    6    6    5
 0.01051305932263138    7    6    6    6
 0.0010476536085925    7    6    7    1
 -0.004824984413936023    7    6    7    2
 -0.0001995761559476688    7    6    7    3
 0.0007243455729003872    7    6    7    4
 0.002246984117947505    7    6    7    5
 0.07075713248663711    7    6    7    6
 0.1962229740133622    7    7    1    1
 -0.008792925139572541    7    7    2    1
 0.1919231976662678    7    7    2    2
 -0.00405081302797831    7    7    3    1
 0.004723871756195684    7    7    3    2
 0.1926023806117676    7    7    3    3
 0.0003114881942765744    7    7    4    1
 -0.0008444755062424598    7    7    4    2
 0.007251968768092557    7    7    4    3
 0.1873289424526894    7    7    4    4
 0.005362766230057422    7    7    5    1
 -0.0009118905078067986    7    7    5    2
 -0.001663378850134239    7    7    5    3
 0.006175622953405629    7    7    5    4
 0.1913185724406245    7    7    5    5
 0.001190538164197436    7    7    6    1
 -0.006680704649596766    7    7    6    2
 -0.001225675076623366    7    7    6    3
 -0.003706321450319355    7    7    6    4
 0.006545432216305812    7    7    6    5
 0.1882621368232383    7    7    6    6
 -0.003231644382575877    7    7    7    1
 -0.0006163681029740711    7    7    7    2
 0.00764928587171052    7    7    7    3
 0.001158474721449946    7    7    7    4
 0.003753462286607966    7    7    7    5
 -0.007113697847018114    7    7    7    6
 0.2014130101009989    7    7    7    7
 -0.000925270020318381    8    1    1    1
 0.003450876775300741    8    1    2    1
 0.0003170686650494422    8    1    2    2
 0.0002079346568982761    8    1    3    1
 0.006316502326547494    8    1    3    2
 0.009405504719673878    8    1    3    3
 -0.01101752028315843    8    1    4    1
 -0.002082920460653281    8    1    4    2
 0.01575371278528801    8    1    4    3
 -0.0005613988795780021    8    1    4    4
 -0.009972938723023744    8    1    5    1
 0.01985259896043869    8    1    5    2
 -0.003046126347395167    8    1    5    3
 -0.0173719526805547    8    1    5    4
 -0.003225282645283764    8    1    5    5
 -0.01089061225396881    8    1    6    1
 -0.000368294879774781    8    1    6    2
 -0.01753873948280126    8    1    6    3
 0.0008609724091868061    8    1    6    4
 0.002472975378898644    8    1    6    5
 -0.0003416914752878463    8    1    6    6
 -0.008587889877073363    8    1    7    1
 0.02318459854910087    8    1    7    2
 0.001964257594164773    8    1    7    3
 -0.003324870428436787    8    1    7    4
 -0.001515147469829896    8    1    7    5
 -0.000920481038471717    8    1    7    6
 -0.0002339145058465914    8    1    7    7
 0.03816320397837316    8    1    8    1
 0.002810751452934571    8    2    1    1
 0.0006181453257403598    8    2    2    1
 0.001449360943769239    8    2    2    2
 0.006467040591033206    8    2    3    1
 0.003099031172581572    8    2    3    2
 -0.02084738091397437    8    2    3    3
 -0.002595682684816648    8    2    4    1
 -0.02570226833643851    8    2    4    2
 0.001999482120074076    8    2    4    3
 0.001005649864836411    8    2    4    4
 0.02173878549924604    8    2    5    1
 0.005169532010848528    8    2    5    2
 0.007525276315723035    8    2    5    3
 -0.003692523397705639    8    2    5    4
 0.009275255434963336    8    2    5    5
 -5.29630286339207e-05    8    2    6    1
 0.002089923332109948    8    2    6    2
 -0.001587251027227226    8    2    6    3
 0.01332132537980708    8    2    6    4
 -0.0001038951838841396    8    2    6    5
 -0.004209394321066519    8    2    6    6
 0.02784577978325302    8    2    7    1
 0.009663570272653061    8    2    7    2
 -0.007861513236652072    8    2    7    3
 -0.0004905612797349879    8    2    7    4
 0.003619737007388244    8    2    7    5
 -0.0002975216576227742    8    2    7    6
 -0.002129673116571263    8    2    7    7
 0.00124218737422862    8    2    8    1
 0.03739366176778924    8    2    8    2
 -0.000247191536599254    8    3    1    1
 0.008989134416966344    8    3    2    1
 0.003622201366286123    8    3    2    2
 0.01300728798815678    8    3    3    1
 -0.02619787838040525    8    3    3    2
 0.0004429561242425651    8    3    3    3
 0.02257133405477643    8    3    4    1
 0.003329554041673389    8    3    4    2
 0.006537861454159874    8    3    4    3
 -0.00167605927010387    8    3    4    4
 -0.004756162511756023    8    3    5    1
 0.009516953604644756    8    3    5    2
 -0.002392174412980696    8    3    5    3
 -0.007592541875572548    8    3    5    4
 0.001940196947496795    8    3    5    5
 -0.03077172316464376    8    3    6    1
 -0.003262000627211967    8    3    6    2
 -0.006652905631872617    8    3    6    3
 0.001329019690823869    8    3    6    4
 0.01356226645742427    8    3    6    5
 -0.001249287936497838    8    3    6    6
 0.005546112856216302    8    3    7    1
 -0.02092654938358372    8    3    7    2
 -0.006916358878375793    8    3    7    3
 -0.01724116084055663    8    3    7    4
 -0.0006638200582499963    8    3    7    5
 0.00735643585354208    8    3    7    6
 -0.001771390419042815    8    3    7    7
 0.005288207024022613    8    3    8    1
 -0.0001367022351802413    8    3    8    2
 0.04107119263109961    8    3    8    3
 -0.01650471577841831    8    4    1    1
 -0.003999771001435109    8    4    2    1
 -0.03831192338313394    8    4    2    2
 0.02724486326661972    8    4    3    1
 0.00354782528957117    8    4    3    2
 0.007990005433340708    8    4    3    3
 -0.0002302970048791671    8    4    4    1
 0.0003248960904320118    8    4    4    2
 -0.0008067133809625002    8    4    4    3
 -0.004549078398620803    8    4    4    4
 -0.0339800611890349    8    4    5    1
 -0.006724152183525603    8    4    5    2
 -0.01015609677649193    8    4    5    3
 0.003177471979041025    8    4    5    4
 0.00257597019289278    8    4    5    5
 0.001206992939223449    8    4    6    1
 0.03230516446818429    8    4    6    2
 0.0003804989854077749    8    4    6    3
 -0.0005654458887625563    8    4    6    4
 -0.001635088850174338    8    4    6    5
 0.01010980263345452    8    4    6    6
 -6.474768194603391e-05    8    4    7    1
 0.002512448882879864    8    4    7    2
 -0.03355319097395508    8    4    7    3
 0.00770163251539794    8    4    7    4
 -0.008139003528380241    8    4    7    5
 -0.001551117172377719    8    4    7    6
 -0.008561080540552886    8    4    7    7
 -0.000241643186156809    8    4    8    1
 -0.006060494727471563    8    4    8    2
 -0.001494061947864015    8    4    8    3
 0.04406094597134105    8    4    8    4
 -0.01952761994746669    8    5    1    1
 0.04090497938653964    8    5    2    1
 0.01066229766104861    8    5    2    2
 -0.006385903229483014    8    5    3    1
 0.01250605419195607    8    5    3    2
 -0.004592971487507183    8    5    3    3
 -0.04172045107291458    8    5    4    1
 -0.00869734781789989    8    5    4    2
 -0.01372334755681208    8    5    4    3
 0.005311561926091867    8    5    4    4
 -0.00963436615754491    8    5    5    1
 0.03247912333899904    8    5    5    2
 0.00551217993463704    8    5    5    3
 0.003295794592546339    8    5    5    4
 -0.003390797608145154    8    5    5    5
 0.001145099383846668    8    5    6    1
 -0.001458548859920415    8    5    6    2
 0.04053198307337398    8    5    6    3
 -0.004953354666704025    8    5    6    4
 -0.00593590777272574    8    5    6    5
 0.002370534489992922    8    5    6    6
 -0.003446127863198093    8    5    7    1
 0.006463430646593969    8    5    7    2
 -0.005867052218337636    8    5    7    3
 -0.03568148532107773    8    5    7    4
 -0.006001190882644593    8    5    7    5
 -0.01352728714253345    8    5    7    6
 -0.0009200751039015031    8    5    7    7
 0.001569959286036003    8    5    8    1
 0.0004807226925444621    8    5    8    2
 -0.007840946683439235    8    5    8    3
 -0.0001563753684585543    8    5    8    4
 0.05159473286622437    8    5    8    5
 -0.03524690585339781    8    6    1    1
 9.906028429824065e-05    8    6    2    1
 -0.002554390169799948    8    6    2    2
 -0.05585131405187634    8    6    3    1
 -0.005251924407977107    8    6    3    2
 -0.02170821025308479    8    6    3    3
 0.001689515077470069    8    6    4    1
 0.04939060877395855    8    6    4    2
 0.0009348963102715543    8    6    4    3
 -0.006802931076359364    8    6    4    4
 0.002423279958340003    8    6    5    1
 -0.001930042421781706    8    6    5    2
 0.0513889697178451    8    6    5    3
 -0.005392384683462636    8    6    5    4
 -0.0132987072954448    8    6    5    5
 -0.0002502541111095557    8    6    6    1
 -0.007392293085219926    8    6    6    2
 -0.001452002598027248    8    6    6    3
 0.04942614380720224    8    6    6    4
 0.0006694128054233533    8    6    6    5
 -0.005341683966120891    8    6    6    6
 -0.002757346928996082    8    6    7    1
 -0.001583025804490386    8    6    7    2
 0.007008484587389889    8    6    7    3
 0.002019607895061687    8    6    7    4
 -0.05084978184046446    8    6    7    5
 0.005652521088842852    8    6    7    6
 0.005528255703112881    8    6    7    7
 0.0003029475519663843    8    6    8    1
 -0.001488681612701043    8    6    8    2
 0.0004330739625813926    8    6    8    3
 -0.01024832790657969    8    6    8    4
 -0.002065727606430143    8    6    8    5
 0.06131041948433909    8    6    8    6
 -0.02751447432101414    8    7    1    1
 0.08272523851345431    8    7    2    1
 0.0321316532826421    8    7    2    2
 0.01158210906008294    8    7    3    1
 -0.04551685122299055    8    7    3    2
 -0.02028041867584221    8    7    3    3
 -0.002468252532444573    8    7    4    1
 0.003122715800139599    8    7    4    2
 -0.06971555286094898    8    7    4    3
 0.02128503435101416    8    7    4    4
 -0.005263670664283524    8    7    5    1
 0.01160745373463909    8    7    5    2
 -0.007989907806873756    8    7    5    3
 -0.05606603094772217    8    7    5    4
 -0.0137610616666527    8    7    5    5
 -0.004041993035896332    8    7    6    1
 -0.001759062465089573    8    7    6    2
 0.01058698093050986    8    7    6    3
 0.001138099815250724    8    7    6    4
 -0.06643185639251853    8    7    6    5
 0.01161143985921249    8    7    6    6
 -0.001246026997390306    8    7    7    1
 -0.002043476766144385    8    7    7    2
 -0.004432062796474224    8    7    7    3
 -0.01398914279437425    8    7    7    4
 0.004279857299825632    8    7    7    5
 0.06177390232627366    8    7    7    6
 -0.007878161893354588    8    7    7    7
 -0.0008246676469478012    8    7    8    1
 -0.0002849707312220775    8    7    8    2
 0.002719561143335002    8    7    8    3
 -0.0007113806055190882    8    7    8    4
 0.01535029342818853    8    7    8    5
 -0.0003005767266787054    8    7    8    6
 0.07939798151805988    8    7    8    7
 0.2082618413620004    8    8    1    1
 0.004237978518974853    8    8    2    1
 0.1992632468384227    8    8    2    2
 0.02226108375623286    8    8    3    1
 -0.0006277739747046771    8    8    3    2
 0.1991270912640953    8    8    3    3
 -0.0002569467325046989    8    8    4    1
 -0.02236942724410514    8    8    4    2
 -0.004315808800219768    8    8    4    3
 0.1949797180467577    8    8    4    4
 0.004186125116291225    8    8    5    1
 0.001548153322607794    8    8    5    2
 -0.02506332112228465    8    8    5    3
 -0.0009506098455389755    8    8    5    4
 0.1953721938101217    8    8    5    5
 0.0004603403864920958    8    8    6    1
 -0.003466378903712184    8    8    6    2
 0.0003200542897274635    8    8    6    3
 -0.02555187837419113    8    8    6    4
 -0.004187638755339746    8    8    6    5
 0.1936160563872232    8    8    6    6
 -0.001379292390242999    8    8    7    1
 -0.0001322606537268525    8    8    7    2
 0.004313864396614532    8    8    7    3
 -0.001837990850006123    8    8    7    4
 0.02709026844030543    8    8    7    5
 0.001310028762584107    8    8    7    6
 0.1939669902108144    8    8    7    7
 -0.0002059842591060563    8    8    8    1
 -0.001201374292804293    8    8    8    2
 -0.0007326457869950252    8    8    8    3
 -0.003646302648632349    8    8    8    4
 0.0007668068691333244    8    8    8    5
 -0.0269692263242906    8    8    8    6
 0.004472116379416809    8    8    8    7
 0.2130455855074025    8    8    8    8
 -0.0002781847419595479    9    1    1    1
 0.0006800902362863835    9    1    2    1
 0.002571940773529605    9    1    2    2
 -0.004189356499837729    9    1    3    1
 0.001170191926071703    9    1    3    2
 -0.008020958622587152    9    1    3    3
 -0.001699006249176569    9    1    4    1
 -0.002060263692182082    9    1    4    2
 -0.004182619371297591    9    1    4    3
 -0.01703643709122884    9    1    4    4
 0.009873751323635308    9    1    5    1
 -0.001366827621383401    9    1    5    2
 -0.01384625289640729    9    1    5    3
 0.0006166018937276591    9    1    5    4
 0.01344723111309797    9    1    5    5
 0.006271461774141661    9    1    6    1
 -0.01779073588633908    9    1    6    2
 0.002196516375663209    9    1    6    3
 0.01194710047122628    9    1    6    4
 0.0002594416839330424    9    1    6    5
 -0.0001746922346970723    9    1    6    6
 -0.009461662603261471    9    1    7    1
 -5.350492475591511e-05    9    1    7    2
 -0.01268689806620683    9    1    7    3
 -0.0002696050871092117    9    1    7    4
 0.001707822745762191    9    1    7    5
 -0.000186740536829161    9    1    7    6
 -0.000244745910639107    9    1    7    7
 -0.005302422755275648    9    1    8    1
 0.0133918368660184    9    1    8    2
 -0.0007781501961683487    9    1    8    3
 -0.001675260238589884    9    1    8    4
 0.0009602775011587895    9    1    8    5
 -0.0006489922633239431    9    1    8    6
 0.001087636022772305    9    1    8    7
 -0.0001453872138725346    9    1    8    8
 0.03447765719675912    9    1    9    1
 0.0004770850366122645    9    2    1    1
 0.00243688526188481    9    2    2    1
 0.002255502304320551    9    2    2    2
 0.001261057801164789    9    2    3    1
 -0.0009618362181510823    9    2    3    2
 0.001995052011668345    9    2    3    3
 -0.00194378371083872    9    2    4    1