 &FCI NORB=  14,NELEC=14,MS2=0,
  ORBSYM=1,1,1,1,1,1,1,1,1,1,1,1,1,1,
  ISYM=1,
 &END
 0.2663264905258962    1    1    1    1
 -0.04779089130387774    2    1    1    1
 0.1144517447691016    2    1    2    1
 0.2069612057373417    2    2    1    1
 0.05124871401126825    2    2    2    1
 0.2693193863248675    2    2    2    2
 0.02704500596123852    3    1    1    1
 0.01254225567917495    3    1    2    1
 -0.01584480808014798    3    1    2    2
 0.08678333531830915    3    1    3    1
 0.01887043699759657    3    2    1    1
 -0.05064439949449818    3    2    2    1
 -0.02917519479993234    3    2    2    2
 -0.01268104653689059    3    2    3    1
 0.06435509471422274    3    2    3    2
 0.224908555776387    3    3    1    1
 -0.02343880368516242    3    3    2    1
 0.1897884358665079    3    3    2    2
 0.01592468973771807    3    3    3    1
 0.01725962331919226    3    3    3    2
 0.2387559840045031    3    3    3    3
 0.0201307502117675    4    1    1    1
 -0.02738444574267365    4    1    2    1
 -0.006528611523530737    4    1    2    2
 0.01699070971700386    4    1    3    1
 -0.03416977103179625    4    1    3    2
 -0.0009483760381579723    4    1    3    3
 0.05974186636521617    4    1    4    1
 -0.03977003371277094    4    2    1    1
 -0.003971028877697172    4    2    2    1
 -0.008828338160624808    4    2    2    2
 -0.05226007089171474    4    2    3    1
 -0.01782410130331735    4    2    3    2
 -0.0004325890711483391    4    2    3    3
 0.01230668395767774    4    2    4    1
 0.07547262125821005    4    2    4    2
 0.03143221482143375    4    3    1    1
 -0.07703148138785638    4    3    2    1
 -0.03505792688816481    4    3    2    2
 -0.01161315262511281    4    3    3    1
 0.04600279255704592    4    3    3    2
 0.02348635173833572    4    3    3    3
 0.002951245040583782    4    3    4    1
 -0.003854715587741387    4    3    4    2
 0.08617203232784874    4    3    4    3
 0.2003318245199876    4    4    1    1
 0.02421503279351574    4    4    2    1
 0.2185638432546111    4    4    2    2
 0.007980062581297557    4    4    3    1
 -0.01095005288321574    4    4    3    2
 0.2011259165259145    4    4    3    3
 -0.003860107109450505    4    4    4    1
 -0.007303210100166557    4    4    4    2
 -0.02317348384688646    4    4    4    3
 0.2305753485359408    4    4    4    4
 -0.02647350927084592    5    1    1    1
 0.01290190236516927    5    1    2    1
 -0.03235118413456216    5    1    2    2
 0.01973378223647916    5    1    3    1
 0.0007911499128611778    5    1    3    2
 0.02172222855344761    5    1    3    3
 -0.0109072932017084    5    1    4    1
 0.02050069612460564    5    1    4    2
 -0.0006556407770324517    5    1    4    3
 -4.379082231665676e-05    5    1    4    4
 0.05451701015947122    5    1    5    1
 0.01409702859829508    5    2    1    1
 -0.03975398128840094    5    2    2    1
 -0.02183618285630661    5    2    2    2
 0.002609892813714434    5    2    3    1
 -0.001848330736433743    5    2    3    2
 0.002263776613902882    5    2    3    3
 0.03307726952762235    5    2    4    1
 0.01491534405257288    5    2    4    2
 -0.007041237663506939    5    2    4    3
 -0.001532408414341514    5    2    4    4
 -0.005811664895048767    5    2    5    1
 0.04983730023146991    5    2    5    2
 0.03848503888858845    5    3    1    1
 0.004666865954036219    5    3    2    1
 0.006113950291260068    5    3    2    2
 0.05680232159282577    5    3    3    1
 -0.001630787071718543    5    3    3    2
 0.02204685394405225    5    3    3    3
 0.00707162698451904    5    3    4    1
 -0.04227645775081715    5    3    4    2
 -0.01068125497285993    5    3    4    3
 -0.008781763552731005    5    3    4    4
 0.002287140236233125    5    3    5    1
 0.004071714033982422    5    3    5    2
 0.07314749871211662    5    3    5    3
 -0.02557794662681158    5    4    1    1
 0.06149579446099677    5    4    2    1
 0.03106512180139245    5    4    2    2
 0.007848859517248055    5    4    3    1
 -0.04715160556325889    5    4    3    2
 -0.01945453588958014    5    4    3    3
 0.007828133924899812    5    4    4    1
 0.008565182527765997    5    4    4    2
 -0.06202127035936865    5    4    4    3
 0.01953841148693961    5    4    4    4
 -6.595807748689241e-05    5    4    5    1
 0.001440687039119423    5    4    5    2
 0.004583883355706396    5    4    5    3
 0.07138623611150334    5    4    5    4
 0.2147740954825157    5    5    1    1
 -0.0133074469980438    5    5    2    1
 0.1959430418089534    5    5    2    2
 0.008438403166926702    5    5    3    1
 0.009419840065272932    5    5    3    2
 0.2153619065970165    5    5    3    3
 0.0003754119244239098    5    5    4    1
 -0.005270544451625124    5    5    4    2
 0.01119646069062118    5    5    4    3
 0.2005631247750234    5    5    4    4
 0.004828964502235569    5    5    5    1
 0.002250299517238329    5    5    5    2
 0.01052918815236629    5    5    5    3
 -0.01278378585096679    5    5    5    4
 0.2230161611377514    5    5    5    5
 0.00262265802922869    6    1    1    1
 -0.01214322317099091    6    1    2    1
 -0.003688618938533138    6    1    2    2
 -0.01512463171276961    6    1    3    1
 0.02586258569753687    6    1    3    2
 -0.002134535138336927    6    1    3    3
 -0.01896355599866501    6    1    4    1
 -0.002761994509517137    6    1    4    2
 -0.01637606398486458    6    1    4    3
 0.002263617262329247    6    1    4    4
 -0.009700679778358109    6    1    5    1
 0.02159183292703202    6    1    5    2
 0.003509303560869331    6    1    5    3
 0.001974945567863341    6    1    5    4
 0.000592467165050669    6    1    5    5
 0.04371017233212277    6    1    6    1
 -0.01274353147481548    6    2    1    1
 -0.005012756339574856    6    2    2    1
 -0.03936849760685372    6    2    2    2
 0.02929406432154224    6    2    3    1
 0.008591489308606136    6    2    3    2
 0.004216967251542125    6    2    3    3
 -0.001945654237009975    6    2    4    1
 -0.005544193865678373    6    2    4    2
 -0.002966119841408343    6    2    4    3
 0.01573770544085983    6    2    4    4
 0.03026655550070584    6    2    5    1
 0.01198832063086361    6    2    5    2
 -0.01070048985877085    6    2    5    3
 0.0007150877352972429    6    2    5    4
 0.001441139655924271    6    2    5    5
 0.00373661719247593    6    2    6    1
 0.05260284473536599    6    2    6    2
 -0.02252704456750637    6    3    1    1
 0.03923037808991263    6    3    2    1
 0.01261603303118555    6    3    2    2
 -0.005692873732949623    6    3    3    1
 0.007262820802188788    6    3    3    2
 -0.00485870150799062    6    3    3    3
 -0.03799162214198796    6    3    4    1
 -0.007979695378760818    6    3    4    2
 -0.009119152142432006    6    3    4    3
 0.003428066259099656    6    3    4    4
 0.01057662621695405    6    3    5    1
 -0.03435037488865329    6    3    5    2
 -0.008500072535710335    6    3    5    3
 -0.01675218192216095    6    3    5    4
 0.0005990535613178277    6    3    5    5
 -0.005043297474578531    6    3    6    1
 -0.002431243983411715    6    3    6    2
 0.05351190406105922    6    3    6    3
 -0.04361241664755693    6    4    1    1
 -0.003110734350903047    6    4    2    1
 -0.0147590574591207    6    4    2    2
 -0.04832251603135161    6    4    3    1
 -0.008719468275232241    6    4    3    2
 -0.01889705433518427    6    4    3    3
 0.003403349887074259    6    4    4    1
 0.05347711135479447    6    4    4    2
 0.0005864825394644897    6    4    4    3
 -0.007891166795776644    6    4    4    4
 0.008304519454229661    6    4    5    1
 0.006497384667228657    6    4    5    2
 -0.0505323331789526    6    4    5    3
 0.008239179257978374    6    4    5    4
 0.002452878551854764    6    4    5    5
 -0.0009360229972470322    6    4    6    1
 0.002846289725194917    6    4    6    2
 -0.004343111535542323    6    4    6    3
 0.06583033178360363    6    4    6    4
 -0.02644009057004804    6    5    1    1
 0.06948507597900822    6    5    2    1
 0.03285721418593434    6    5    2    2
 0.01551714757632075    6    5    3    1
 -0.05272485081442169    6    5    3    2
 -0.01927149134978511    6    5    3    3
 0.00932301795984232    6    5    4    1
 0.006394510862222032    6    5    4    2
 -0.06819498866117646    6    5    4    3
 0.0185432037610308    6    5    4    4
 0.002727675364132378    6    5    5    1
 0.0002575581066057448    6    5    5    2
 0.009553729529893796    6    5    5    3
 0.0612638417933304    6    5    5    4
 -0.01202682120738359    6    5    5    5
 -0.003651817224737017    6    5    6    1
 -0.0008814907781344123    6    5    6    2
 -0.001576027158690521    6    5    6    3
 0.002697958970294477    6    5    6    4
 0.07950430268901715    6    5    6    5
 0.2041711300860863    6    6    1    1
 0.01075297448103388    6    6    2    1
 0.2175166993850548    6    6    2    2
 -0.003704981705699387    6    6    3    1
 -0.006383433726704528    6    6    3    2
 0.2027485701234091    6    6    3    3
 -0.001087927913492827    6    6    4    1
 0.0001102403625240179    6    6    4    2
 -0.00945974704740765    6    6    4    3
 0.2093925905255997    6    6    4    4
 -0.005790284082422792    6    6    5    1
 -0.002357909714905904    6    6    5    2
 0.001219184172774775    6    6    5    3
 0.007771959136952937    6    6    5    4
 0.2041988846584285    6    6    5    5
 0.001019751262926574    6    6    6    1
 -0.00782128938919451    6    6    6    2
 0.001525080733604323    6    6    6    3
 -0.002733595558334374    6    6    6    4
 0.009207890007360209    6    6    6    5
 0.2198095123367994    6    6    6    6
 0.003677484187423114    7    1    1    1
 -0.001839255020516869    7    1    2    1
 -0.004373841447813316    7    1    2    2
 0.01506380317819776    7    1    3    1
 -0.00507851698902444    7    1    3    2
 -0.01773421801631271    7    1    3    3
 0.01040654154013048    7    1    4    1
 -0.02294908315728997    7    1    4    2
 0.003499777485534193    7    1    4    3
 0.01724032014663198    7    1    4    4
 -0.01383877752779166    7    1    5    1
 -0.0007438912291728823    7    1    5    2
 -0.02092992043816619    7    1    5    3
 -0.001405382404779153    7    1    5    4
 -0.00478692344598413    7    1    5    5
 -0.01106459676671845    7    1    6    1
 0.02358631598871837    7    1    6    2
 0.0001915346481280221    7    1    6    3
 -0.00279550889933296    7    1    6    4
 -0.0001419489214325711    7    1    6    5
 -0.002570268065295959    7    1    6    6
 0.04470543223952783    7    1    7    1
 -0.001466107141623258    7    2    1    1
 -0.003811054974088742    7    2    2    1
 -0.006540476283448947    7    2    2    2
 -0.00576526420428224    7    2    3    1
 0.02716309278165507    7    2    3    2
 -0.001013450316447601    7    2    3    3
 -0.02631999484586779    7    2    4    1
 -0.01254617083416387    7    2    4    2
 -0.005159768892047396    7    2    4    3
 0.007424573285205597    7    2    4    4
 -0.001369403764602248    7    2    5    1
 0.003119856818546262    7    2    5    2
 -0.001019395183130307    7    2    5    3
 0.01256002381245441    7    2    5    4
 -0.001130220643004874    7    2    5    5
 0.03040228924845638    7    2    6    1
 0.01397299443088247    7    2    6    2
 -0.009890437339893173    7    2    6    3
 -0.000576425274299961    7    2    6    4
 -0.00524542233348522    7    2    6    5
 -0.0009902094843774242    7    2    6    6
 -0.001332615329529158    7    2    7    1
 0.04150737525836808    7    2    7    2
 0.02151378804760064    7    3    1    1
 -0.008297107208016467    7    3    2    1
 0.03457196947138133    7    3    2    2
 -0.02655296760892799    7    3    3    1
 -0.0006194773015819606    7    3    3    2
 -0.008259016003690178    7    3    3    3
 0.005046058035161909    7    3    4    1
 -0.005724954706680241    7    3    4    2
 0.004220450133214268    7    3    4    3
 0.006650289859014298    7    3    4    4
 -0.03955174785870495    7    3    5    1
 -0.0002920938214570309    7    3    5    2
 -0.009034897658077974    7    3    5    3
 0.001758335850678904    7    3    5    4
 -0.01582473274038752    7    3    5    5
 0.004788583674155334    7    3    6    1
 -0.027759401831705    7    3    6    2
 -0.009320355934996503    7    3    6    3
 -0.01608222520733286    7    3    6    4
 -0.002174022447579456    7    3    6    5
 0.00844335332396258    7    3    6    6
 0.006213210473584535    7    3    7    1
 0.001067055566022838    7    3    7    2
 0.04980794911488714    7    3    7    3
 0.0175084393252528    7    4    1    1
 -0.04237079697466228    7    4    2    1
 -0.02077477076556549    7    4    2    2
 0.005305210652231402    7    4    3    1
 -0.007125685049913756    7    4    3    2
 0.005041256394539728    7    4    3    3
 0.03997323767101572    7    4    4    1
 0.01442682463770029    7    4    4    2
 0.01123340699629429    7    4    4    3
 -0.007938540181652912    7    4    4    4
 -0.004795870388300702    7    4    5    1
 0.03690767822081202    7    4    5    2
 0.004259296611858086    7    4    5    3
 -1.044538512073607e-05    7    4    5    4
 0.002447120423524469    7    4    5    5
 0.0008653462925976285    7    4    6    1
 0.004406429626903022    7    4    6    2
 -0.04018840400677532    7    4    6    3
 0.009705120656553549    7    4    6    4
 0.009886716518300365    7    4    6    5
 -0.002124548801795373    7    4    6    6
 0.0009316708804119707    7    4    7    1
 -0.00673667060045593    7    4    7    2
 0.0009591101915780906    7    4    7    3
 0.05228182705047561    7    4    7    4
 -0.03947305778883609    7    5    1    1
 -0.003688385351940357    7    5    2    1
 -0.002883100790552793    7    5    2    2
 -0.06180291688957744    7    5    3    1
 -0.00135481900126028    7    5    3    2
 -0.02239266600003717    7    5    3    3
 -0.005395006145346369    7    5    4    1
 0.04870197835159078    7    5    4    2
 0.005889519021332313    7    5    4    3
 -0.006636279974152355    7    5    4    4
 -0.004932465766169274    7    5    5    1
 -0.001185858699225463    7    5    5    2
 -0.05676383613879755    7    5    5    3
 0.000882664569986708    7    5    5    4
 -0.0120108895957116    7    5    5    5
 0.001702175293980636    7    5    6    1
 -0.008510128927490188    7    5    6    2
 0.00267906496567864    7    5    6    3
 0.05058694056302479    7    5    6    4
 -0.007274588521594511    7    5    6    5
 0.008827227243637327    7    5    6    6
 -0.001350566299598998    7    5    7    1
 0.0001551910807083257    7    5    7    2
 0.01083008262611137    7    5    7    3
 -0.001987803250934631    7    5    7    4
 0.06741399679267288    7    5    7    5
 -0.03396080308505708    7    6    1    1
 0.08113303083186886    7    6    2    1
 0.03988998585222595    7    6    2    2
 0.008500139685313388    7    6    3    1
 -0.05211559657720652    7    6    3    2
 -0.02306054458526362    7    6    3    3
 -0.001281420753823214    7    6    4    1
 0.006073663788479083    7    6    4    2
 -0.07008343068845366    7    6    4    3
 0.02110162820943568    7    6    4    4
 0.002470175545808488    7    6    5    1
 -0.01139356553516214    7    6    5    2
 0.002740736597234672    7    6    5    3
 0.06308676242766645    7    6    5    4
 -0.01345367220944698    7    6    5    5
 -0.00498173222928339    7    6    6    1
 -0.003299156707760154    7    6    6    2
 0.009398902945771642    7    6    6    3
 0.00389964190846079    7    6    6    4
 0.06837056533712431    7    6    6    5
 0.01047043945748696    7    6    6    6
 0.0003725760868674719    7    6    7    1
 -0.002156674934062085    7    6    7    2
 -0.0009289181686566016    7    6    7    3
 -0.01433128373169975    7    6    7    4
 3.653646933678145e-05    7    6    7    5
 0.08212288592415862    7    6    7    6
 0.2295070361571705    7    7    1    1
 -0.003324637299330346    7    7    2    1
 0.2117944371519131    7    7    2    2
 0.02307665724279589    7    7    3    1
 0.004024228903937676    7    7    3    2
 0.2183479184426789    7    7    3    3
 0.001930355331426553    7    7    4    1
 -0.02332123157524454    7    7    4    2
 0.001891454824513422    7    7    4    3
 0.209135872033518    7    7    4    4
 -0.003791475401641427    7    7    5    1
 2.912279606148878e-06    7    7    5    2
 0.02678663333703209    7    7    5    3
 -0.004596366722624038    7    7    5    4
 0.2131498773980866    7    7    5    5
 0.0006114605467775151    7    7    6    1
 -0.003044478960111551    7    7    6    2
 -0.001721479964103293    7    7    6    3
 -0.02722944528661463    7    7    6    4
 -0.001471993746585149    7    7    6    5
 0.2092022677205698    7    7    6    6
 -0.001643305956159941    7    7    7    1
 -0.0004675030271063668    7    7    7    2
 0.003273888432414458    7    7    7    3
 0.0004321689832899288    7    7    7    4
 -0.02865589057515313    7    7    7    5
 -0.005035599417151624    7    7    7    6
 0.2312326398855796    7    7    7    7
 -0.001313252468833381    8    1    1    1
 0.00371835581165669    8    1    2    1
 0.0002643504243741204    8    1    2    2
 0.001118006602720714    8    1    3    1
 0.003888507691077185    8    1    3    2
 0.01034206991210026    8    1    3    3
 -0.00871780839147065    8    1    4    1
 -0.0001560570297848464    8    1    4    2
 0.01715508318390463    8    1    4    3
 -0.001031246658163684    8    1    4    4
 0.01162577507701272    8    1    5    1
 -0.01958385862042828    8    1    5    2
 0.001898126444228689    8    1    5    3
 0.01406898187497419    8    1    5    4
 -0.003159190423871328    8    1    5    5
 -0.01218074123019391    8    1    6    1
 -0.0008365091701519423    8    1    6    2
 -0.01366630686681631    8    1    6    3
 1.014524654207845e-05    8    1    6    4
 -0.001894549457279608    8    1    6    5
 -0.0001177051618135743    8    1    6    6
 -0.007060970624653774    8    1    7    1
 0.01457382213940232    8    1    7    2
 0.001277429529481338    8    1    7    3
 -0.002958817989694258    8    1    7    4
 0.00106318542317831    8    1    7    5
 0.0003224043600751393    8    1    7    6
 -0.0003827524601718077    8    1    7    7
 0.03992239145368971    8    1    8    1
 0.003407238061526268    8    2    1    1
 0.0005594210678833681    8    2    2    1
 0.003224580992658624    8    2    2    2
 0.004009561126516458    8    2    3    1
 0.001967721596947579    8    2    3    2
 -0.02107581723503859    8    2    3    3
 -0.0004767364167308199    8    2    4    1
 -0.02460478551202581    8    2    4    2
 0.002710403667756772    8    2    4    3
 -0.0008718952558671761    8    2    4    4
 -0.0222546770169556    8    2    5    1
 -0.00649780565408621    8    2    5    2
 -0.004374263483843116    8    2    5    3
 0.003211805270619668    8    2    5    4
 0.007067749312504691    8    2    5    5
 -0.0008181315634168906    8    2    6    1
 -9.617759336186596e-05    8    2    6    2
 -0.00143362863073087    8    2    6    3
 0.009093584079137117    8    2    6    4
 -0.0003810554851748887    8    2    6    5
 -0.002378447530951187    8    2    6    6
 0.02131062841086404    8    2    7    1
 0.00768591976383964    8    2    7    2
 -0.00277655562201477    8    2    7    3
 -0.001309445587283696    8    2    7    4
 -0.001336121427941368    8    2    7    5
 0.0004639688499574676    8    2    7    6
 -0.001529384301446851    8    2    7    7
 -0.001175563429056159    8    2    8    1
 0.03658362747777145    8    2    8    2
 0.001065582553301555    8    3    1    1
 0.005437872615622938    8    3    2    1
 0.002053324146014664    8    3    2    2
 0.01473326538783621    8    3    3    1
 -0.02675470031464907    8    3    3    2
 -0.0008674319428559366    8    3    3    3
 0.02569180891307496    8    3    4    1
 0.004228459705356243    8    3    4    2
 0.004960183114307602    8    3    4    3
 -0.002029541117268302    8    3    4    4
 0.00333052822818631    8    3    5    1
 -0.004598813748268217    8    3    5    2
 0.002280568263913567    8    3    5    3
 0.006630408157759083    8    3    5    4
 0.0009483857744551846    8    3    5    5
 -0.02839884464776816    8    3    6    1
 -0.002738717954168076    8    3    6    2
 -0.006617436696263061    8    3    6    3
 0.001392276236510129    8    3    6    4
 -0.008346359703679612    8    3    6    5
 -0.0008783086527916948    8    3    6    6
 0.006905526318387281    8    3    7    1
 -0.02023482705166122    8    3    7    2
 -0.004539520145473121    8    3    7    3
 -0.00738554256005094    8    3    7    4
 3.634183189876348e-05    8    3    7    5
 0.005022177381444346    8    3    7    6
 -0.001273982991334254    8    3    7    7
 0.005552991330311244    8    3    8    1
 0.001128207464549827    8    3    8    2
 0.04238712757162248    8    3    8    3
 -0.01327905279392865    8    4    1    1
 -0.0007533809584455891    8    4    2    1
 -0.03689153240625794    8    4    2    2
 0.03081667729932685    8    4    3    1
 0.004615094299148408    8    4    3    2
 0.005953280903542637    8    4    3    3
 -0.001222160205805954    8    4    4    1
 -0.003476338788872813    8    4    4    2
 -0.001511568758591595    8    4    4    3
 -0.00431056493478765    8    4    4    4
 0.03136743066390658    8    4    5    1
 0.006028620287338252    8    4    5    2
 0.01040436553688055    8    4    5    3
 -0.00288969372417107    8    4    5    4
 0.001785133632509614    8    4    5    5
 -0.001143154642815003    8    4    6    1
 0.03019775324204741    8    4    6    2
 0.001444266881436707    8    4    6    3
 -0.00122838258289709    8    4    6    4
 0.001404826685941545    8    4    6    5
 0.002590867181045584    8    4    6    6
 0.001061029283126252    8    4    7    1
 0.002474128846045801    8    4    7    2
 -0.03032175412858743    8    4    7    3
 0.00496351446132143    8    4    7    4
 -0.001796450228427776    8    4    7    5
 -0.002123587246091095    8    4    7    6
 -0.003098888932737466    8    4    7    7
 0.0006740150504307497    8    4    8    1
 -0.0058415382541287    8    4    8    2
 0.0006955845456517611    8    4    8    3
 0.04276866663422197    8    4    8    4
 0.02336320194901902    8    5    1    1
 -0.04211013008690267    8    5    2    1
 -0.01364917187825643    8    5    2    2
 0.004489716653675895    8    5    3    1
 -0.006013869559505411    8    5    3    2
 0.004732378619693766    8    5    3    3
 0.03846317056539917    8    5    4    1
 0.008037989279301957    8    5    4    2
 0.01404300718115815    8    5    4    3
 -0.005131977574299655    8    5    4    4
 -0.01119387329863732    8    5    5    1
 0.03214218281135412    8    5    5    2
 0.004513662080859453    8    5    5    3
 0.0002531159585121533    8    5    5    4
 0.002299038698594882    8    5    5    5
 -4.010942542333781e-05    8    5    6    1
 0.0008598934150169659    8    5    6    2
 -0.03875971546269762    8    5    6    3
 0.003496717457419827    8    5    6    4
 -0.004558028833985093    8    5    6    5
 -0.001899420673989681    8    5    6    6
 0.003628899029505167    8    5    7    1
 -0.00379603741900765    8    5    7    2
 0.007075013814463125    8    5    7    3
 0.03476459868008249    8    5    7    4
 -0.002947459937734733    8    5    7    5
 -0.002399055176721734    8    5    7    6
 0.0007191331944936203    8    5    7    7
 -0.000922932473948101    8    5    8    1
 0.0003468927636929794    8    5    8    2
 0.008423550459697931    8    5    8    3
 -0.001956282367660392    8    5    8    4
 0.05016282415622077    8    5    8    5
 -0.03691472137462636    8    6    1    1
 -0.001977064516189067    8    6    2    1
 -0.005816171461864048    8    6    2    2
 -0.05032160729681262    8    6    3    1
 -0.004638519626591417    8    6    3    2
 -0.01958339644845775    8    6    3    3
 -0.001570730018203559    8    6    4    1
 0.04457141502822679    8    6    4    2
 0.002463209385034109    8    6    4    3
 -0.006960975669658889    8    6    4    4
 -0.0006609728128012986    8    6    5    1
 0.001272004484151287    8    6    5    2
 -0.04715143814537117    8    6    5    3
 0.003584551441409546    8    6    5    4
 -0.01037097728278107    8    6    5    5
 0.0004096511375462461    8    6    6    1
 -0.004910472064192279    8    6    6    2
 0.0004247258478703572    8    6    6    3
 0.04493688174150695    8    6    6    4
 -0.002014158889683848    8    6    6    5
 -0.002034588172160267    8    6    6    6
 -0.001826843165327266    8    6    7    1
 -0.0009430896445038915    8    6    7    2
 0.004655521144274798    8    6    7    3
 0.001141954820877723    8    6    7    4
 0.04667998609324336    8    6    7    5
 0.002874931802400107    8    6    7    6
 -0.01557207775971913    8    6    7    7
 0.0002576474407928553    8    6    8    1
 -0.001267238514263439    8    6    8    2
 -0.0006394261042006206    8    6    8    3
 -0.009456668994821341    8    6    8    4
 -0.0002245812119172587    8    6    8    5
 0.05281142930604017    8    6    8    6
 -0.02355754354814197    8    7    1    1
 0.06159085940778913    8    7    2    1
 0.02794293155645915    8    7    2    2
 0.01268823369860654    8    7    3    1
 -0.0382902466003605    8    7    3    2
 -0.01441047690223693    8    7    3    3
 -0.001346029107720529    8    7    4    1
 0.001623860044646827    8    7    4    2
 -0.05480892929434605    8    7    4    3
 0.01547778360849642    8    7    4    4
 0.004900503114802287    8    7    5    1
 -0.006736609005790326    8    7    5    2
 0.008462007227433279    8    7    5    3
 0.04628778062839256    8    7    5    4
 -0.00812641712650284    8    7    5    5
 -0.002074190921036806    8    7    6    1
 -0.0005212712241289635    8    7    6    2
 0.007596071759166831    8    7    6    3
 -0.000691331169597474    8    7    6    4
 0.05290365594332218    8    7    6    5
 0.006926939502084636    8    7    6    6
 -0.001693931301346424    8    7    7    1
 -0.00175609176683654    8    7    7    2
 -0.004458490718514027    8    7    7    3
 -0.008062287003624834    8    7    7    4
 -0.005878511531988241    8    7    7    5
 0.05211067344536665    8    7    7    6
 -0.0009934826525942273    8    7    7    7
 -0.001453072755352305    8    7    8    1
 -0.0007090794590023652    8    7    8    2
 0.0008542102129555813    8    7    8    3
 0.001225883293167045    8    7    8    4
 -0.01323749098648414    8    7    8    5
 -0.003309385378133713    8    7    8    6
 0.05938230505329396    8    7    8    7
 0.2309275423888948    8    8    1    1
 -0.003776285878171809    8    8    2    1
 0.2130740254486166    8    8    2    2
 0.02263436081493584    8    8    3    1
 0.004199684581318515    8    8    3    2
 0.2195247835153557    8    8    3    3
 0.002015853217218698    8    8    4    1
 -0.02312276470896492    8    8    4    2
 0.002353115186838691    8    8    4    3
 0.2100835204955742    8    8    4    4
 -0.00400210178368246    8    8    5    1
 1.284110902117358e-05    8    8    5    2
 0.02645817610955764    8    8    5    3
 -0.004787043772041144    8    8    5    4
 0.2140072274406802    8    8    5    5
 0.0005384680663210219    8    8    6    1
 -0.003257276991515783    8    8    6    2
 -0.001944009755233372    8    8    6    3
 -0.02680903913533178    8    8    6    4
 -0.001976236978370849    8    8    6    5
 0.2093951680545963    8    8    6    6
 -0.001716518652011377    8    8    7    1
 -0.0004692798809112619    8    8    7    2
 0.003353067902582095    8    8    7    3
 0.0004817954870844667    8    8    7    4
 -0.02792577380691955    8    8    7    5
 -0.005225298918070654    8    8    7    6
 0.2267336037880716    8    8    7    7
 -9.489680371936766e-05    8    8    8    1
 -0.001405588933669475    8    8    8    2
 -0.0008075539959750671    8    8    8    3
 -0.003121527846326246    8    8    8    4
 0.001515918726582801    8    8    8    5
 -0.0200347561303728    8    8    8    6
 -0.001399264521273036    8    8    8    7
 0.2333439170202571    8    8    8    8
 0.0004967652251776718    9    1    1    1
 0.0002375356722574107    9    1    2    1
 0.002160854930397616    9    1    2    2
 -0.001564860806310438    9    1    3    1
 0.000315380047419347    9    1    3    2
 -0.01023157741313743    9    1    3    3
 -3.673660017387098e-05    9    1    4    1
 -0.006540335889295974    9    1    4    2
 -0.004216177762123933    9    1    4    3
 -0.01469638175780929    9    1    4    4
 -0.01167710005985995    9    1    5    1
 0.001230810636431099    9    1    5    2
 0.01242217864288055    9    1    5    3
 -0.0007084517304106128    9    1    5    4
 0.01245216080399549    9    1    5    5
 0.006158477334450318    9    1    6    1
 -0.01481342635447918    9    1    6    2
 0.001798564483589402    9    1    6    3
 0.01140342160522957    9    1    6    4
 -0.0007983058130121059    9    1    6    5
 -0.0003835595332681284    9    1    6    6
 -0.008671659353049182    9    1    7    1
 -0.0005174653244134728    9    1    7    2
 -0.01219592749898471    9    1    7    3
 -0.000292830066817867    9    1    7    4
 -0.001200770154438151    9    1    7    5
 5.365416582312269e-05    9    1    7    6
 -0.0006891853137141093    9    1    7    7
 -0.00895788006980225    9    1    8    1
 0.02027157973299936    9    1    8    2
 0.001000879128952547    9    1    8    3
 -0.00195485546202852    9    1    8    4
 1.988510183889591e-05    9    1    8    5
 -0.001436997859474834    9    1    8    6
 0.0008315157055471391    9    1    8    7
 -0.0003850321574746364    9    1    8    8
 0.02987178852324136    9    1    9    1
 -7.220703076598234e-05    9    2    1    1
 0.002249688889769919    9    2    2    1
 0.001492359091427944    9    2    2    2
 0.0002030444243314595    9    2    3    1
 0.004269312344503116    9    2    3    2
 0.001166445848115315    9    2    3    3
 -0.007326208576856886    9    2    4    1